 CRYSTAL
 PRIMVEC
    4.464430000    0.000000000    0.000000000
    0.000000000    4.464430000    0.000000000
    0.000000000    0.000000000    4.464430000
 PRIMCOORD
           5           1
Ba        0.000000000    0.000000000    0.000000000
          2.232213000    2.232213000    2.232213000
Ca        2.232213000    2.232213000    0.000000000
Ca        2.232213000    0.000000000    2.232213000
Ca        0.000000000    2.232213000    2.232213000
