
     Program PWSCF v.7.3 starts on  7Apr2025 at 19: 3:50 

     This program is part of the open-source Quantum ESPRESSO suite
     for quantum simulation of materials; please cite
         "P. Giannozzi et al., J. Phys.:Condens. Matter 21 395502 (2009);
         "P. Giannozzi et al., J. Phys.:Condens. Matter 29 465901 (2017);
         "P. Giannozzi et al., J. Chem. Phys. 152 154105 (2020);
          URL http://www.quantum-espresso.org", 
     in publications or presentations arising from this work. More details at
     http://www.quantum-espresso.org/quote

     Parallel version (MPI), running on    20 processors

     MPI processes distributed on     1 nodes
     26168 MiB available memory on the printing compute node when the environment starts

     Waiting for input...
     Reading input from standard input

     Current dimensions of program PWSCF are:
     Max number of different atomic species (ntypx) = 10
     Max number of k-points (npk) = 120000
     Max angular momentum in pseudopotentials (lmaxx) =  4
     file Ba.pbesol-spn-kjpaw_psl.1.0.0.UPF: wavefunction(s)  5S 6S renormalized
     file O.pbesol-n-kjpaw_psl.0.1.UPF: wavefunction(s)  2P renormalized
     Message from routine setup:
     using ibrav=0 with symmetry is DISCOURAGED, use correct ibrav instead

     K-points division:     npool     =       2
     R & G space division:  proc/nbgrp/npool/nimage =      10
     Subspace diagonalization in iterative solution of the eigenvalue problem:
     a serial algorithm will be used


     Parallelization info
     --------------------
     sticks:   dense  smooth     PW     G-vecs:    dense   smooth      PW
     Min         224      88     27                 8096     2036     339
     Max         225      90     28                 8101     2039     342
     Sum        2249     889    277                80989    20377    3407

     Using Slab Decomposition



     bravais-lattice index     =            0
     lattice parameter (alat)  =       8.4365  a.u.
     unit-cell volume          =     600.4730 (a.u.)^3
     number of atoms/cell      =            5
     number of atomic types    =            3
     number of electrons       =        38.00
     number of Kohn-Sham states=           23
     kinetic-energy cutoff     =      40.0000  Ry
     charge density cutoff     =     400.0000  Ry
     scf convergence threshold =      1.0E-07
     mixing beta               =       0.4000
     number of iterations used =            8  plain     mixing
     Exchange-correlation= SLA  PW   PSX  PSC
                           (   1   4  10   8   0   0   0)

     celldm(1)=   8.436542  celldm(2)=   0.000000  celldm(3)=   0.000000
     celldm(4)=   0.000000  celldm(5)=   0.000000  celldm(6)=   0.000000

     crystal axes: (cart. coord. in units of alat)
               a(1) = (   1.000000   0.000000   0.000000 )  
               a(2) = (   0.000000   1.000000   0.000000 )  
               a(3) = (   0.000000   0.000000   1.000000 )  

     reciprocal axes: (cart. coord. in units 2 pi/alat)
               b(1) = (  1.000000  0.000000  0.000000 )  
               b(2) = (  0.000000  1.000000  0.000000 )  
               b(3) = (  0.000000  0.000000  1.000000 )  


     PseudoPot. # 1 for Ba read from file:
     ./pseudo/Ba.pbesol-spn-kjpaw_psl.1.0.0.UPF
     MD5 check sum: f28c4a63d325c1a0d00fd3a4f19b8d73
     Pseudo is Projector augmented-wave + core cor, Zval = 10.0
     Generated using "atomic" code by A. Dal Corso  v.6.0 svn rev. 13079
     Shape of augmentation charge: PSQ
     Using radial grid of 1251 points,  7 beta functions with: 
                l(1) =   0
                l(2) =   0
                l(3) =   0
                l(4) =   1
                l(5) =   1
                l(6) =   2
                l(7) =   2
     Q(r) pseudized with 0 coefficients 


     PseudoPot. # 2 for Ca read from file:
     ./pseudo/ca_pbesol_v1.uspp.F.UPF
     MD5 check sum: 0533207b58cddeaa036efa5b63902087
     Pseudo is Ultrasoft + core correction, Zval = 10.0
     Generated by new atomic code, or converted to UPF format
     Using radial grid of  845 points,  6 beta functions with: 
                l(1) =   0
                l(2) =   0
                l(3) =   1
                l(4) =   1
                l(5) =   2
                l(6) =   2
     Q(r) pseudized with  8 coefficients,  rinner =    1.500   1.500   1.500
                                                       1.500   1.500

     PseudoPot. # 3 for O  read from file:
     ./pseudo/O.pbesol-n-kjpaw_psl.0.1.UPF
     MD5 check sum: 81d73d1479e654e5638b0319f0d6c2c7
     Pseudo is Projector augmented-wave + core cor, Zval =  6.0
     Generated using "atomic" code by A. Dal Corso  v.6.0 svn rev. 13079
     Shape of augmentation charge: BESSEL
     Using radial grid of 1095 points,  4 beta functions with: 
                l(1) =   0
                l(2) =   0
                l(3) =   1
                l(4) =   1
     Q(r) pseudized with 0 coefficients 


     atomic species   valence    mass     pseudopotential
     Ba               10.00   137.32700     Ba( 1.00)
     Ca               10.00    40.07800     Ca( 1.00)
     O                 6.00    15.99940     O ( 1.00)

     48 Sym. Ops., with inversion, found


                                    s                        frac. trans.

      isym =  1     identity                                     

 cryst.   s( 1) = (     1          0          0      )
                  (     0          1          0      )
                  (     0          0          1      )

 cart.    s( 1) = (  1.0000000  0.0000000  0.0000000 )
                  (  0.0000000  1.0000000  0.0000000 )
                  (  0.0000000  0.0000000  1.0000000 )


      isym =  2     180 deg rotation - cart. axis [0,0,1]        

 cryst.   s( 2) = (    -1          0          0      )
                  (     0         -1          0      )
                  (     0          0          1      )

 cart.    s( 2) = ( -1.0000000  0.0000000  0.0000000 )
                  (  0.0000000 -1.0000000  0.0000000 )
                  (  0.0000000  0.0000000  1.0000000 )


      isym =  3     180 deg rotation - cart. axis [0,1,0]        

 cryst.   s( 3) = (    -1          0          0      )
                  (     0          1          0      )
                  (     0          0         -1      )

 cart.    s( 3) = ( -1.0000000  0.0000000  0.0000000 )
                  (  0.0000000  1.0000000  0.0000000 )
                  (  0.0000000  0.0000000 -1.0000000 )


      isym =  4     180 deg rotation - cart. axis [1,0,0]        

 cryst.   s( 4) = (     1          0          0      )
                  (     0         -1          0      )
                  (     0          0         -1      )

 cart.    s( 4) = (  1.0000000  0.0000000  0.0000000 )
                  (  0.0000000 -1.0000000  0.0000000 )
                  (  0.0000000  0.0000000 -1.0000000 )


      isym =  5     180 deg rotation - cart. axis [1,1,0]        

 cryst.   s( 5) = (     0          1          0      )
                  (     1          0          0      )
                  (     0          0         -1      )

 cart.    s( 5) = (  0.0000000  1.0000000  0.0000000 )
                  (  1.0000000  0.0000000  0.0000000 )
                  (  0.0000000  0.0000000 -1.0000000 )


      isym =  6     180 deg rotation - cart. axis [1,-1,0]       

 cryst.   s( 6) = (     0         -1          0      )
                  (    -1          0          0      )
                  (     0          0         -1      )

 cart.    s( 6) = (  0.0000000 -1.0000000  0.0000000 )
                  ( -1.0000000  0.0000000  0.0000000 )
                  (  0.0000000  0.0000000 -1.0000000 )


      isym =  7      90 deg rotation - cart. axis [0,0,-1]       

 cryst.   s( 7) = (     0         -1          0      )
                  (     1          0          0      )
                  (     0          0          1      )

 cart.    s( 7) = (  0.0000000  1.0000000  0.0000000 )
                  ( -1.0000000  0.0000000  0.0000000 )
                  (  0.0000000  0.0000000  1.0000000 )


      isym =  8      90 deg rotation - cart. axis [0,0,1]        

 cryst.   s( 8) = (     0          1          0      )
                  (    -1          0          0      )
                  (     0          0          1      )

 cart.    s( 8) = (  0.0000000 -1.0000000  0.0000000 )
                  (  1.0000000  0.0000000  0.0000000 )
                  (  0.0000000  0.0000000  1.0000000 )


      isym =  9     180 deg rotation - cart. axis [1,0,1]        

 cryst.   s( 9) = (     0          0          1      )
                  (     0         -1          0      )
                  (     1          0          0      )

 cart.    s( 9) = (  0.0000000  0.0000000  1.0000000 )
                  (  0.0000000 -1.0000000  0.0000000 )
                  (  1.0000000  0.0000000  0.0000000 )


      isym = 10     180 deg rotation - cart. axis [-1,0,1]       

 cryst.   s(10) = (     0          0         -1      )
                  (     0         -1          0      )
                  (    -1          0          0      )

 cart.    s(10) = (  0.0000000  0.0000000 -1.0000000 )
                  (  0.0000000 -1.0000000  0.0000000 )
                  ( -1.0000000  0.0000000  0.0000000 )


      isym = 11      90 deg rotation - cart. axis [0,1,0]        

 cryst.   s(11) = (     0          0         -1      )
                  (     0          1          0      )
                  (     1          0          0      )

 cart.    s(11) = (  0.0000000  0.0000000  1.0000000 )
                  (  0.0000000  1.0000000  0.0000000 )
                  ( -1.0000000  0.0000000  0.0000000 )


      isym = 12      90 deg rotation - cart. axis [0,-1,0]       

 cryst.   s(12) = (     0          0          1      )
                  (     0          1          0      )
                  (    -1          0          0      )

 cart.    s(12) = (  0.0000000  0.0000000 -1.0000000 )
                  (  0.0000000  1.0000000  0.0000000 )
                  (  1.0000000  0.0000000  0.0000000 )


      isym = 13     180 deg rotation - cart. axis [0,1,1]        

 cryst.   s(13) = (    -1          0          0      )
                  (     0          0          1      )
                  (     0          1          0      )

 cart.    s(13) = ( -1.0000000  0.0000000  0.0000000 )
                  (  0.0000000  0.0000000  1.0000000 )
                  (  0.0000000  1.0000000  0.0000000 )


      isym = 14     180 deg rotation - cart. axis [0,1,-1]       

 cryst.   s(14) = (    -1          0          0      )
                  (     0          0         -1      )
                  (     0         -1          0      )

 cart.    s(14) = ( -1.0000000  0.0000000  0.0000000 )
                  (  0.0000000  0.0000000 -1.0000000 )
                  (  0.0000000 -1.0000000  0.0000000 )


      isym = 15      90 deg rotation - cart. axis [-1,0,0]       

 cryst.   s(15) = (     1          0          0      )
                  (     0          0         -1      )
                  (     0          1          0      )

 cart.    s(15) = (  1.0000000  0.0000000  0.0000000 )
                  (  0.0000000  0.0000000  1.0000000 )
                  (  0.0000000 -1.0000000  0.0000000 )


      isym = 16      90 deg rotation - cart. axis [1,0,0]        

 cryst.   s(16) = (     1          0          0      )
                  (     0          0          1      )
                  (     0         -1          0      )

 cart.    s(16) = (  1.0000000  0.0000000  0.0000000 )
                  (  0.0000000  0.0000000 -1.0000000 )
                  (  0.0000000  1.0000000  0.0000000 )


      isym = 17     120 deg rotation - cart. axis [-1,-1,-1]     

 cryst.   s(17) = (     0          0          1      )
                  (     1          0          0      )
                  (     0          1          0      )

 cart.    s(17) = (  0.0000000  1.0000000  0.0000000 )
                  (  0.0000000  0.0000000  1.0000000 )
                  (  1.0000000  0.0000000  0.0000000 )


      isym = 18     120 deg rotation - cart. axis [-1,1,1]       

 cryst.   s(18) = (     0          0         -1      )
                  (    -1          0          0      )
                  (     0          1          0      )

 cart.    s(18) = (  0.0000000 -1.0000000  0.0000000 )
                  (  0.0000000  0.0000000  1.0000000 )
                  ( -1.0000000  0.0000000  0.0000000 )


      isym = 19     120 deg rotation - cart. axis [1,1,-1]       

 cryst.   s(19) = (     0          0         -1      )
                  (     1          0          0      )
                  (     0         -1          0      )

 cart.    s(19) = (  0.0000000  1.0000000  0.0000000 )
                  (  0.0000000  0.0000000 -1.0000000 )
                  ( -1.0000000  0.0000000  0.0000000 )


      isym = 20     120 deg rotation - cart. axis [1,-1,1]       

 cryst.   s(20) = (     0          0          1      )
                  (    -1          0          0      )
                  (     0         -1          0      )

 cart.    s(20) = (  0.0000000 -1.0000000  0.0000000 )
                  (  0.0000000  0.0000000 -1.0000000 )
                  (  1.0000000  0.0000000  0.0000000 )


      isym = 21     120 deg rotation - cart. axis [1,1,1]        

 cryst.   s(21) = (     0          1          0      )
                  (     0          0          1      )
                  (     1          0          0      )

 cart.    s(21) = (  0.0000000  0.0000000  1.0000000 )
                  (  1.0000000  0.0000000  0.0000000 )
                  (  0.0000000  1.0000000  0.0000000 )


      isym = 22     120 deg rotation - cart. axis [-1,1,-1]      

 cryst.   s(22) = (     0         -1          0      )
                  (     0          0         -1      )
                  (     1          0          0      )

 cart.    s(22) = (  0.0000000  0.0000000  1.0000000 )
                  ( -1.0000000  0.0000000  0.0000000 )
                  (  0.0000000 -1.0000000  0.0000000 )


      isym = 23     120 deg rotation - cart. axis [1,-1,-1]      

 cryst.   s(23) = (     0         -1          0      )
                  (     0          0          1      )
                  (    -1          0          0      )

 cart.    s(23) = (  0.0000000  0.0000000 -1.0000000 )
                  ( -1.0000000  0.0000000  0.0000000 )
                  (  0.0000000  1.0000000  0.0000000 )


      isym = 24     120 deg rotation - cart. axis [-1,-1,1]      

 cryst.   s(24) = (     0          1          0      )
                  (     0          0         -1      )
                  (    -1          0          0      )

 cart.    s(24) = (  0.0000000  0.0000000 -1.0000000 )
                  (  1.0000000  0.0000000  0.0000000 )
                  (  0.0000000 -1.0000000  0.0000000 )


      isym = 25     inversion                                    

 cryst.   s(25) = (    -1          0          0      )
                  (     0         -1          0      )
                  (     0          0         -1      )

 cart.    s(25) = ( -1.0000000  0.0000000  0.0000000 )
                  (  0.0000000 -1.0000000  0.0000000 )
                  (  0.0000000  0.0000000 -1.0000000 )


      isym = 26     inv. 180 deg rotation - cart. axis [0,0,1]   

 cryst.   s(26) = (     1          0          0      )
                  (     0          1          0      )
                  (     0          0         -1      )

 cart.    s(26) = (  1.0000000  0.0000000  0.0000000 )
                  (  0.0000000  1.0000000  0.0000000 )
                  (  0.0000000  0.0000000 -1.0000000 )


      isym = 27     inv. 180 deg rotation - cart. axis [0,1,0]   

 cryst.   s(27) = (     1          0          0      )
                  (     0         -1          0      )
                  (     0          0          1      )

 cart.    s(27) = (  1.0000000  0.0000000  0.0000000 )
                  (  0.0000000 -1.0000000  0.0000000 )
                  (  0.0000000  0.0000000  1.0000000 )


      isym = 28     inv. 180 deg rotation - cart. axis [1,0,0]   

 cryst.   s(28) = (    -1          0          0      )
                  (     0          1          0      )
                  (     0          0          1      )

 cart.    s(28) = ( -1.0000000  0.0000000  0.0000000 )
                  (  0.0000000  1.0000000  0.0000000 )
                  (  0.0000000  0.0000000  1.0000000 )


      isym = 29     inv. 180 deg rotation - cart. axis [1,1,0]   

 cryst.   s(29) = (     0         -1          0      )
                  (    -1          0          0      )
                  (     0          0          1      )

 cart.    s(29) = (  0.0000000 -1.0000000  0.0000000 )
                  ( -1.0000000  0.0000000  0.0000000 )
                  (  0.0000000  0.0000000  1.0000000 )


      isym = 30     inv. 180 deg rotation - cart. axis [1,-1,0]  

 cryst.   s(30) = (     0          1          0      )
                  (     1          0          0      )
                  (     0          0          1      )

 cart.    s(30) = (  0.0000000  1.0000000  0.0000000 )
                  (  1.0000000  0.0000000  0.0000000 )
                  (  0.0000000  0.0000000  1.0000000 )


      isym = 31     inv.  90 deg rotation - cart. axis [0,0,-1]  

 cryst.   s(31) = (     0          1          0      )
                  (    -1          0          0      )
                  (     0          0         -1      )

 cart.    s(31) = (  0.0000000 -1.0000000  0.0000000 )
                  (  1.0000000  0.0000000  0.0000000 )
                  (  0.0000000  0.0000000 -1.0000000 )


      isym = 32     inv.  90 deg rotation - cart. axis [0,0,1]   

 cryst.   s(32) = (     0         -1          0      )
                  (     1          0          0      )
                  (     0          0         -1      )

 cart.    s(32) = (  0.0000000  1.0000000  0.0000000 )
                  ( -1.0000000  0.0000000  0.0000000 )
                  (  0.0000000  0.0000000 -1.0000000 )


      isym = 33     inv. 180 deg rotation - cart. axis [1,0,1]   

 cryst.   s(33) = (     0          0         -1      )
                  (     0          1          0      )
                  (    -1          0          0      )

 cart.    s(33) = (  0.0000000  0.0000000 -1.0000000 )
                  (  0.0000000  1.0000000  0.0000000 )
                  ( -1.0000000  0.0000000  0.0000000 )


      isym = 34     inv. 180 deg rotation - cart. axis [-1,0,1]  

 cryst.   s(34) = (     0          0          1      )
                  (     0          1          0      )
                  (     1          0          0      )

 cart.    s(34) = (  0.0000000  0.0000000  1.0000000 )
                  (  0.0000000  1.0000000  0.0000000 )
                  (  1.0000000  0.0000000  0.0000000 )


      isym = 35     inv.  90 deg rotation - cart. axis [0,1,0]   

 cryst.   s(35) = (     0          0          1      )
                  (     0         -1          0      )
                  (    -1          0          0      )

 cart.    s(35) = (  0.0000000  0.0000000 -1.0000000 )
                  (  0.0000000 -1.0000000  0.0000000 )
                  (  1.0000000  0.0000000  0.0000000 )


      isym = 36     inv.  90 deg rotation - cart. axis [0,-1,0]  

 cryst.   s(36) = (     0          0         -1      )
                  (     0         -1          0      )
                  (     1          0          0      )

 cart.    s(36) = (  0.0000000  0.0000000  1.0000000 )
                  (  0.0000000 -1.0000000  0.0000000 )
                  ( -1.0000000  0.0000000  0.0000000 )


      isym = 37     inv. 180 deg rotation - cart. axis [0,1,1]   

 cryst.   s(37) = (     1          0          0      )
                  (     0          0         -1      )
                  (     0         -1          0      )

 cart.    s(37) = (  1.0000000  0.0000000  0.0000000 )
                  (  0.0000000  0.0000000 -1.0000000 )
                  (  0.0000000 -1.0000000  0.0000000 )


      isym = 38     inv. 180 deg rotation - cart. axis [0,1,-1]  

 cryst.   s(38) = (     1          0          0      )
                  (     0          0          1      )
                  (     0          1          0      )

 cart.    s(38) = (  1.0000000  0.0000000  0.0000000 )
                  (  0.0000000  0.0000000  1.0000000 )
                  (  0.0000000  1.0000000  0.0000000 )


      isym = 39     inv.  90 deg rotation - cart. axis [-1,0,0]  

 cryst.   s(39) = (    -1          0          0      )
                  (     0          0          1      )
                  (     0         -1          0      )

 cart.    s(39) = ( -1.0000000  0.0000000  0.0000000 )
                  (  0.0000000  0.0000000 -1.0000000 )
                  (  0.0000000  1.0000000  0.0000000 )


      isym = 40     inv.  90 deg rotation - cart. axis [1,0,0]   

 cryst.   s(40) = (    -1          0          0      )
                  (     0          0         -1      )
                  (     0          1          0      )

 cart.    s(40) = ( -1.0000000  0.0000000  0.0000000 )
                  (  0.0000000  0.0000000  1.0000000 )
                  (  0.0000000 -1.0000000  0.0000000 )


      isym = 41     inv. 120 deg rotation - cart. axis [-1,-1,-1]

 cryst.   s(41) = (     0          0         -1      )
                  (    -1          0          0      )
                  (     0         -1          0      )

 cart.    s(41) = (  0.0000000 -1.0000000  0.0000000 )
                  (  0.0000000  0.0000000 -1.0000000 )
                  ( -1.0000000  0.0000000  0.0000000 )


      isym = 42     inv. 120 deg rotation - cart. axis [-1,1,1]  

 cryst.   s(42) = (     0          0          1      )
                  (     1          0          0      )
                  (     0         -1          0      )

 cart.    s(42) = (  0.0000000  1.0000000  0.0000000 )
                  (  0.0000000  0.0000000 -1.0000000 )
                  (  1.0000000  0.0000000  0.0000000 )


      isym = 43     inv. 120 deg rotation - cart. axis [1,1,-1]  

 cryst.   s(43) = (     0          0          1      )
                  (    -1          0          0      )
                  (     0          1          0      )

 cart.    s(43) = (  0.0000000 -1.0000000  0.0000000 )
                  (  0.0000000  0.0000000  1.0000000 )
                  (  1.0000000  0.0000000  0.0000000 )


      isym = 44     inv. 120 deg rotation - cart. axis [1,-1,1]  

 cryst.   s(44) = (     0          0         -1      )
                  (     1          0          0      )
                  (     0          1          0      )

 cart.    s(44) = (  0.0000000  1.0000000  0.0000000 )
                  (  0.0000000  0.0000000  1.0000000 )
                  ( -1.0000000  0.0000000  0.0000000 )


      isym = 45     inv. 120 deg rotation - cart. axis [1,1,1]   

 cryst.   s(45) = (     0         -1          0      )
                  (     0          0         -1      )
                  (    -1          0          0      )

 cart.    s(45) = (  0.0000000  0.0000000 -1.0000000 )
                  ( -1.0000000  0.0000000  0.0000000 )
                  (  0.0000000 -1.0000000  0.0000000 )


      isym = 46     inv. 120 deg rotation - cart. axis [-1,1,-1] 

 cryst.   s(46) = (     0          1          0      )
                  (     0          0          1      )
                  (    -1          0          0      )

 cart.    s(46) = (  0.0000000  0.0000000 -1.0000000 )
                  (  1.0000000  0.0000000  0.0000000 )
                  (  0.0000000  1.0000000  0.0000000 )


      isym = 47     inv. 120 deg rotation - cart. axis [1,-1,-1] 

 cryst.   s(47) = (     0          1          0      )
                  (     0          0         -1      )
                  (     1          0          0      )

 cart.    s(47) = (  0.0000000  0.0000000  1.0000000 )
                  (  1.0000000  0.0000000  0.0000000 )
                  (  0.0000000 -1.0000000  0.0000000 )


      isym = 48     inv. 120 deg rotation - cart. axis [-1,-1,1] 

 cryst.   s(48) = (     0         -1          0      )
                  (     0          0          1      )
                  (     1          0          0      )

 cart.    s(48) = (  0.0000000  0.0000000  1.0000000 )
                  ( -1.0000000  0.0000000  0.0000000 )
                  (  0.0000000  1.0000000  0.0000000 )


   Cartesian axes

     site n.     atom                  positions (alat units)
         1        Ba     tau(   1) = (   0.0000000   0.0000000   0.0000000  )
         2        Ca     tau(   2) = (   0.5000000   0.5000000   0.5000000  )
         3        O      tau(   3) = (   0.5000000   0.5000000   0.0000000  )
         4        O      tau(   4) = (   0.5000000   0.0000000   0.5000000  )
         5        O      tau(   5) = (   0.0000000   0.5000000   0.5000000  )

   Crystallographic axes

     site n.     atom                  positions (cryst. coord.)
         1        Ba     tau(   1) = (  0.0000000  0.0000000  0.0000000  )
         2        Ca     tau(   2) = (  0.5000000  0.5000000  0.5000000  )
         3        O      tau(   3) = (  0.5000000  0.5000000  0.0000000  )
         4        O      tau(   4) = (  0.5000000  0.0000000  0.5000000  )
         5        O      tau(   5) = (  0.0000000  0.5000000  0.5000000  )

     number of k points=   120  Marzari-Vanderbilt smearing, width (Ry)=  0.0200
                       cart. coord. in units 2pi/alat
        k(    1) = (   0.0312500   0.0312500   0.0312500), wk =   0.0039062
        k(    2) = (   0.0312500   0.0312500   0.0937500), wk =   0.0117188
        k(    3) = (   0.0312500   0.0312500   0.1562500), wk =   0.0117188
        k(    4) = (   0.0312500   0.0312500   0.2187500), wk =   0.0117188
        k(    5) = (   0.0312500   0.0312500   0.2812500), wk =   0.0117188
        k(    6) = (   0.0312500   0.0312500   0.3437500), wk =   0.0117188
        k(    7) = (   0.0312500   0.0312500   0.4062500), wk =   0.0117188
        k(    8) = (   0.0312500   0.0312500   0.4687500), wk =   0.0117188
        k(    9) = (   0.0312500   0.0937500   0.0937500), wk =   0.0117188
        k(   10) = (   0.0312500   0.0937500   0.1562500), wk =   0.0234375
        k(   11) = (   0.0312500   0.0937500   0.2187500), wk =   0.0234375
        k(   12) = (   0.0312500   0.0937500   0.2812500), wk =   0.0234375
        k(   13) = (   0.0312500   0.0937500   0.3437500), wk =   0.0234375
        k(   14) = (   0.0312500   0.0937500   0.4062500), wk =   0.0234375
        k(   15) = (   0.0312500   0.0937500   0.4687500), wk =   0.0234375
        k(   16) = (   0.0312500   0.1562500   0.1562500), wk =   0.0117188
        k(   17) = (   0.0312500   0.1562500   0.2187500), wk =   0.0234375
        k(   18) = (   0.0312500   0.1562500   0.2812500), wk =   0.0234375
        k(   19) = (   0.0312500   0.1562500   0.3437500), wk =   0.0234375
        k(   20) = (   0.0312500   0.1562500   0.4062500), wk =   0.0234375
        k(   21) = (   0.0312500   0.1562500   0.4687500), wk =   0.0234375
        k(   22) = (   0.0312500   0.2187500   0.2187500), wk =   0.0117188
        k(   23) = (   0.0312500   0.2187500   0.2812500), wk =   0.0234375
        k(   24) = (   0.0312500   0.2187500   0.3437500), wk =   0.0234375
        k(   25) = (   0.0312500   0.2187500   0.4062500), wk =   0.0234375
        k(   26) = (   0.0312500   0.2187500   0.4687500), wk =   0.0234375
        k(   27) = (   0.0312500   0.2812500   0.2812500), wk =   0.0117188
        k(   28) = (   0.0312500   0.2812500   0.3437500), wk =   0.0234375
        k(   29) = (   0.0312500   0.2812500   0.4062500), wk =   0.0234375
        k(   30) = (   0.0312500   0.2812500   0.4687500), wk =   0.0234375
        k(   31) = (   0.0312500   0.3437500   0.3437500), wk =   0.0117188
        k(   32) = (   0.0312500   0.3437500   0.4062500), wk =   0.0234375
        k(   33) = (   0.0312500   0.3437500   0.4687500), wk =   0.0234375
        k(   34) = (   0.0312500   0.4062500   0.4062500), wk =   0.0117188
        k(   35) = (   0.0312500   0.4062500   0.4687500), wk =   0.0234375
        k(   36) = (   0.0312500   0.4687500   0.4687500), wk =   0.0117188
        k(   37) = (   0.0937500   0.0937500   0.0937500), wk =   0.0039062
        k(   38) = (   0.0937500   0.0937500   0.1562500), wk =   0.0117188
        k(   39) = (   0.0937500   0.0937500   0.2187500), wk =   0.0117188
        k(   40) = (   0.0937500   0.0937500   0.2812500), wk =   0.0117188
        k(   41) = (   0.0937500   0.0937500   0.3437500), wk =   0.0117188
        k(   42) = (   0.0937500   0.0937500   0.4062500), wk =   0.0117188
        k(   43) = (   0.0937500   0.0937500   0.4687500), wk =   0.0117188
        k(   44) = (   0.0937500   0.1562500   0.1562500), wk =   0.0117188
        k(   45) = (   0.0937500   0.1562500   0.2187500), wk =   0.0234375
        k(   46) = (   0.0937500   0.1562500   0.2812500), wk =   0.0234375
        k(   47) = (   0.0937500   0.1562500   0.3437500), wk =   0.0234375
        k(   48) = (   0.0937500   0.1562500   0.4062500), wk =   0.0234375
        k(   49) = (   0.0937500   0.1562500   0.4687500), wk =   0.0234375
        k(   50) = (   0.0937500   0.2187500   0.2187500), wk =   0.0117188
        k(   51) = (   0.0937500   0.2187500   0.2812500), wk =   0.0234375
        k(   52) = (   0.0937500   0.2187500   0.3437500), wk =   0.0234375
        k(   53) = (   0.0937500   0.2187500   0.4062500), wk =   0.0234375
        k(   54) = (   0.0937500   0.2187500   0.4687500), wk =   0.0234375
        k(   55) = (   0.0937500   0.2812500   0.2812500), wk =   0.0117188
        k(   56) = (   0.0937500   0.2812500   0.3437500), wk =   0.0234375
        k(   57) = (   0.0937500   0.2812500   0.4062500), wk =   0.0234375
        k(   58) = (   0.0937500   0.2812500   0.4687500), wk =   0.0234375
        k(   59) = (   0.0937500   0.3437500   0.3437500), wk =   0.0117188
        k(   60) = (   0.0937500   0.3437500   0.4062500), wk =   0.0234375
        k(   61) = (   0.0937500   0.3437500   0.4687500), wk =   0.0234375
        k(   62) = (   0.0937500   0.4062500   0.4062500), wk =   0.0117188
        k(   63) = (   0.0937500   0.4062500   0.4687500), wk =   0.0234375
        k(   64) = (   0.0937500   0.4687500   0.4687500), wk =   0.0117188
        k(   65) = (   0.1562500   0.1562500   0.1562500), wk =   0.0039062
        k(   66) = (   0.1562500   0.1562500   0.2187500), wk =   0.0117188
        k(   67) = (   0.1562500   0.1562500   0.2812500), wk =   0.0117188
        k(   68) = (   0.1562500   0.1562500   0.3437500), wk =   0.0117188
        k(   69) = (   0.1562500   0.1562500   0.4062500), wk =   0.0117188
        k(   70) = (   0.1562500   0.1562500   0.4687500), wk =   0.0117188
        k(   71) = (   0.1562500   0.2187500   0.2187500), wk =   0.0117188
        k(   72) = (   0.1562500   0.2187500   0.2812500), wk =   0.0234375
        k(   73) = (   0.1562500   0.2187500   0.3437500), wk =   0.0234375
        k(   74) = (   0.1562500   0.2187500   0.4062500), wk =   0.0234375
        k(   75) = (   0.1562500   0.2187500   0.4687500), wk =   0.0234375
        k(   76) = (   0.1562500   0.2812500   0.2812500), wk =   0.0117188
        k(   77) = (   0.1562500   0.2812500   0.3437500), wk =   0.0234375
        k(   78) = (   0.1562500   0.2812500   0.4062500), wk =   0.0234375
        k(   79) = (   0.1562500   0.2812500   0.4687500), wk =   0.0234375
        k(   80) = (   0.1562500   0.3437500   0.3437500), wk =   0.0117188
        k(   81) = (   0.1562500   0.3437500   0.4062500), wk =   0.0234375
        k(   82) = (   0.1562500   0.3437500   0.4687500), wk =   0.0234375
        k(   83) = (   0.1562500   0.4062500   0.4062500), wk =   0.0117188
        k(   84) = (   0.1562500   0.4062500   0.4687500), wk =   0.0234375
        k(   85) = (   0.1562500   0.4687500   0.4687500), wk =   0.0117188
        k(   86) = (   0.2187500   0.2187500   0.2187500), wk =   0.0039062
        k(   87) = (   0.2187500   0.2187500   0.2812500), wk =   0.0117188
        k(   88) = (   0.2187500   0.2187500   0.3437500), wk =   0.0117188
        k(   89) = (   0.2187500   0.2187500   0.4062500), wk =   0.0117188
        k(   90) = (   0.2187500   0.2187500   0.4687500), wk =   0.0117188
        k(   91) = (   0.2187500   0.2812500   0.2812500), wk =   0.0117188
        k(   92) = (   0.2187500   0.2812500   0.3437500), wk =   0.0234375
        k(   93) = (   0.2187500   0.2812500   0.4062500), wk =   0.0234375
        k(   94) = (   0.2187500   0.2812500   0.4687500), wk =   0.0234375
        k(   95) = (   0.2187500   0.3437500   0.3437500), wk =   0.0117188
        k(   96) = (   0.2187500   0.3437500   0.4062500), wk =   0.0234375
        k(   97) = (   0.2187500   0.3437500   0.4687500), wk =   0.0234375
        k(   98) = (   0.2187500   0.4062500   0.4062500), wk =   0.0117188
        k(   99) = (   0.2187500   0.4062500   0.4687500), wk =   0.0234375
        k(  100) = (   0.2187500   0.4687500   0.4687500), wk =   0.0117188
        k(  101) = (   0.2812500   0.2812500   0.2812500), wk =   0.0039062
        k(  102) = (   0.2812500   0.2812500   0.3437500), wk =   0.0117188
        k(  103) = (   0.2812500   0.2812500   0.4062500), wk =   0.0117188
        k(  104) = (   0.2812500   0.2812500   0.4687500), wk =   0.0117188
        k(  105) = (   0.2812500   0.3437500   0.3437500), wk =   0.0117188
        k(  106) = (   0.2812500   0.3437500   0.4062500), wk =   0.0234375
        k(  107) = (   0.2812500   0.3437500   0.4687500), wk =   0.0234375
        k(  108) = (   0.2812500   0.4062500   0.4062500), wk =   0.0117188
        k(  109) = (   0.2812500   0.4062500   0.4687500), wk =   0.0234375
        k(  110) = (   0.2812500   0.4687500   0.4687500), wk =   0.0117188
        k(  111) = (   0.3437500   0.3437500   0.3437500), wk =   0.0039062
        k(  112) = (   0.3437500   0.3437500   0.4062500), wk =   0.0117188
        k(  113) = (   0.3437500   0.3437500   0.4687500), wk =   0.0117188
        k(  114) = (   0.3437500   0.4062500   0.4062500), wk =   0.0117188
        k(  115) = (   0.3437500   0.4062500   0.4687500), wk =   0.0234375
        k(  116) = (   0.3437500   0.4687500   0.4687500), wk =   0.0117188
        k(  117) = (   0.4062500   0.4062500   0.4062500), wk =   0.0039062
        k(  118) = (   0.4062500   0.4062500   0.4687500), wk =   0.0117188
        k(  119) = (   0.4062500   0.4687500   0.4687500), wk =   0.0117188
        k(  120) = (   0.4687500   0.4687500   0.4687500), wk =   0.0039062

                       cryst. coord.
        k(    1) = (   0.0312500   0.0312500   0.0312500), wk =   0.0039062
        k(    2) = (   0.0312500   0.0312500   0.0937500), wk =   0.0117188
        k(    3) = (   0.0312500   0.0312500   0.1562500), wk =   0.0117188
        k(    4) = (   0.0312500   0.0312500   0.2187500), wk =   0.0117188
        k(    5) = (   0.0312500   0.0312500   0.2812500), wk =   0.0117188
        k(    6) = (   0.0312500   0.0312500   0.3437500), wk =   0.0117188
        k(    7) = (   0.0312500   0.0312500   0.4062500), wk =   0.0117188
        k(    8) = (   0.0312500   0.0312500   0.4687500), wk =   0.0117188
        k(    9) = (   0.0312500   0.0937500   0.0937500), wk =   0.0117188
        k(   10) = (   0.0312500   0.0937500   0.1562500), wk =   0.0234375
        k(   11) = (   0.0312500   0.0937500   0.2187500), wk =   0.0234375
        k(   12) = (   0.0312500   0.0937500   0.2812500), wk =   0.0234375
        k(   13) = (   0.0312500   0.0937500   0.3437500), wk =   0.0234375
        k(   14) = (   0.0312500   0.0937500   0.4062500), wk =   0.0234375
        k(   15) = (   0.0312500   0.0937500   0.4687500), wk =   0.0234375
        k(   16) = (   0.0312500   0.1562500   0.1562500), wk =   0.0117188
        k(   17) = (   0.0312500   0.1562500   0.2187500), wk =   0.0234375
        k(   18) = (   0.0312500   0.1562500   0.2812500), wk =   0.0234375
        k(   19) = (   0.0312500   0.1562500   0.3437500), wk =   0.0234375
        k(   20) = (   0.0312500   0.1562500   0.4062500), wk =   0.0234375
        k(   21) = (   0.0312500   0.1562500   0.4687500), wk =   0.0234375
        k(   22) = (   0.0312500   0.2187500   0.2187500), wk =   0.0117188
        k(   23) = (   0.0312500   0.2187500   0.2812500), wk =   0.0234375
        k(   24) = (   0.0312500   0.2187500   0.3437500), wk =   0.0234375
        k(   25) = (   0.0312500   0.2187500   0.4062500), wk =   0.0234375
        k(   26) = (   0.0312500   0.2187500   0.4687500), wk =   0.0234375
        k(   27) = (   0.0312500   0.2812500   0.2812500), wk =   0.0117188
        k(   28) = (   0.0312500   0.2812500   0.3437500), wk =   0.0234375
        k(   29) = (   0.0312500   0.2812500   0.4062500), wk =   0.0234375
        k(   30) = (   0.0312500   0.2812500   0.4687500), wk =   0.0234375
        k(   31) = (   0.0312500   0.3437500   0.3437500), wk =   0.0117188
        k(   32) = (   0.0312500   0.3437500   0.4062500), wk =   0.0234375
        k(   33) = (   0.0312500   0.3437500   0.4687500), wk =   0.0234375
        k(   34) = (   0.0312500   0.4062500   0.4062500), wk =   0.0117188
        k(   35) = (   0.0312500   0.4062500   0.4687500), wk =   0.0234375
        k(   36) = (   0.0312500   0.4687500   0.4687500), wk =   0.0117188
        k(   37) = (   0.0937500   0.0937500   0.0937500), wk =   0.0039062
        k(   38) = (   0.0937500   0.0937500   0.1562500), wk =   0.0117188
        k(   39) = (   0.0937500   0.0937500   0.2187500), wk =   0.0117188
        k(   40) = (   0.0937500   0.0937500   0.2812500), wk =   0.0117188
        k(   41) = (   0.0937500   0.0937500   0.3437500), wk =   0.0117188
        k(   42) = (   0.0937500   0.0937500   0.4062500), wk =   0.0117188
        k(   43) = (   0.0937500   0.0937500   0.4687500), wk =   0.0117188
        k(   44) = (   0.0937500   0.1562500   0.1562500), wk =   0.0117188
        k(   45) = (   0.0937500   0.1562500   0.2187500), wk =   0.0234375
        k(   46) = (   0.0937500   0.1562500   0.2812500), wk =   0.0234375
        k(   47) = (   0.0937500   0.1562500   0.3437500), wk =   0.0234375
        k(   48) = (   0.0937500   0.1562500   0.4062500), wk =   0.0234375
        k(   49) = (   0.0937500   0.1562500   0.4687500), wk =   0.0234375
        k(   50) = (   0.0937500   0.2187500   0.2187500), wk =   0.0117188
        k(   51) = (   0.0937500   0.2187500   0.2812500), wk =   0.0234375
        k(   52) = (   0.0937500   0.2187500   0.3437500), wk =   0.0234375
        k(   53) = (   0.0937500   0.2187500   0.4062500), wk =   0.0234375
        k(   54) = (   0.0937500   0.2187500   0.4687500), wk =   0.0234375
        k(   55) = (   0.0937500   0.2812500   0.2812500), wk =   0.0117188
        k(   56) = (   0.0937500   0.2812500   0.3437500), wk =   0.0234375
        k(   57) = (   0.0937500   0.2812500   0.4062500), wk =   0.0234375
        k(   58) = (   0.0937500   0.2812500   0.4687500), wk =   0.0234375
        k(   59) = (   0.0937500   0.3437500   0.3437500), wk =   0.0117188
        k(   60) = (   0.0937500   0.3437500   0.4062500), wk =   0.0234375
        k(   61) = (   0.0937500   0.3437500   0.4687500), wk =   0.0234375
        k(   62) = (   0.0937500   0.4062500   0.4062500), wk =   0.0117188
        k(   63) = (   0.0937500   0.4062500   0.4687500), wk =   0.0234375
        k(   64) = (   0.0937500   0.4687500   0.4687500), wk =   0.0117188
        k(   65) = (   0.1562500   0.1562500   0.1562500), wk =   0.0039062
        k(   66) = (   0.1562500   0.1562500   0.2187500), wk =   0.0117188
        k(   67) = (   0.1562500   0.1562500   0.2812500), wk =   0.0117188
        k(   68) = (   0.1562500   0.1562500   0.3437500), wk =   0.0117188
        k(   69) = (   0.1562500   0.1562500   0.4062500), wk =   0.0117188
        k(   70) = (   0.1562500   0.1562500   0.4687500), wk =   0.0117188
        k(   71) = (   0.1562500   0.2187500   0.2187500), wk =   0.0117188
        k(   72) = (   0.1562500   0.2187500   0.2812500), wk =   0.0234375
        k(   73) = (   0.1562500   0.2187500   0.3437500), wk =   0.0234375
        k(   74) = (   0.1562500   0.2187500   0.4062500), wk =   0.0234375
        k(   75) = (   0.1562500   0.2187500   0.4687500), wk =   0.0234375
        k(   76) = (   0.1562500   0.2812500   0.2812500), wk =   0.0117188
        k(   77) = (   0.1562500   0.2812500   0.3437500), wk =   0.0234375
        k(   78) = (   0.1562500   0.2812500   0.4062500), wk =   0.0234375
        k(   79) = (   0.1562500   0.2812500   0.4687500), wk =   0.0234375
        k(   80) = (   0.1562500   0.3437500   0.3437500), wk =   0.0117188
        k(   81) = (   0.1562500   0.3437500   0.4062500), wk =   0.0234375
        k(   82) = (   0.1562500   0.3437500   0.4687500), wk =   0.0234375
        k(   83) = (   0.1562500   0.4062500   0.4062500), wk =   0.0117188
        k(   84) = (   0.1562500   0.4062500   0.4687500), wk =   0.0234375
        k(   85) = (   0.1562500   0.4687500   0.4687500), wk =   0.0117188
        k(   86) = (   0.2187500   0.2187500   0.2187500), wk =   0.0039062
        k(   87) = (   0.2187500   0.2187500   0.2812500), wk =   0.0117188
        k(   88) = (   0.2187500   0.2187500   0.3437500), wk =   0.0117188
        k(   89) = (   0.2187500   0.2187500   0.4062500), wk =   0.0117188
        k(   90) = (   0.2187500   0.2187500   0.4687500), wk =   0.0117188
        k(   91) = (   0.2187500   0.2812500   0.2812500), wk =   0.0117188
        k(   92) = (   0.2187500   0.2812500   0.3437500), wk =   0.0234375
        k(   93) = (   0.2187500   0.2812500   0.4062500), wk =   0.0234375
        k(   94) = (   0.2187500   0.2812500   0.4687500), wk =   0.0234375
        k(   95) = (   0.2187500   0.3437500   0.3437500), wk =   0.0117188
        k(   96) = (   0.2187500   0.3437500   0.4062500), wk =   0.0234375
        k(   97) = (   0.2187500   0.3437500   0.4687500), wk =   0.0234375
        k(   98) = (   0.2187500   0.4062500   0.4062500), wk =   0.0117188
        k(   99) = (   0.2187500   0.4062500   0.4687500), wk =   0.0234375
        k(  100) = (   0.2187500   0.4687500   0.4687500), wk =   0.0117188
        k(  101) = (   0.2812500   0.2812500   0.2812500), wk =   0.0039062
        k(  102) = (   0.2812500   0.2812500   0.3437500), wk =   0.0117188
        k(  103) = (   0.2812500   0.2812500   0.4062500), wk =   0.0117188
        k(  104) = (   0.2812500   0.2812500   0.4687500), wk =   0.0117188
        k(  105) = (   0.2812500   0.3437500   0.3437500), wk =   0.0117188
        k(  106) = (   0.2812500   0.3437500   0.4062500), wk =   0.0234375
        k(  107) = (   0.2812500   0.3437500   0.4687500), wk =   0.0234375
        k(  108) = (   0.2812500   0.4062500   0.4062500), wk =   0.0117188
        k(  109) = (   0.2812500   0.4062500   0.4687500), wk =   0.0234375
        k(  110) = (   0.2812500   0.4687500   0.4687500), wk =   0.0117188
        k(  111) = (   0.3437500   0.3437500   0.3437500), wk =   0.0039062
        k(  112) = (   0.3437500   0.3437500   0.4062500), wk =   0.0117188
        k(  113) = (   0.3437500   0.3437500   0.4687500), wk =   0.0117188
        k(  114) = (   0.3437500   0.4062500   0.4062500), wk =   0.0117188
        k(  115) = (   0.3437500   0.4062500   0.4687500), wk =   0.0234375
        k(  116) = (   0.3437500   0.4687500   0.4687500), wk =   0.0117188
        k(  117) = (   0.4062500   0.4062500   0.4062500), wk =   0.0039062
        k(  118) = (   0.4062500   0.4062500   0.4687500), wk =   0.0117188
        k(  119) = (   0.4062500   0.4687500   0.4687500), wk =   0.0117188
        k(  120) = (   0.4687500   0.4687500   0.4687500), wk =   0.0039062

     Dense  grid:    80989 G-vectors     FFT dimensions: (  54,  54,  54)

     Smooth grid:    20377 G-vectors     FFT dimensions: (  36,  36,  36)

     Dynamical RAM for                 wfc:       0.09 MB

     Dynamical RAM for     wfc (w. buffer):       5.48 MB

     Dynamical RAM for           str. fact:       0.37 MB

     Dynamical RAM for           local pot:       0.00 MB

     Dynamical RAM for          nlocal pot:       0.24 MB

     Dynamical RAM for                qrad:       6.42 MB

     Dynamical RAM for          rho,v,vnew:       0.77 MB

     Dynamical RAM for               rhoin:       0.26 MB

     Dynamical RAM for            rho*nmix:       1.98 MB

     Dynamical RAM for           G-vectors:       0.48 MB

     Dynamical RAM for          h,s,v(r/c):       0.10 MB

     Dynamical RAM for          <psi|beta>:       0.02 MB

     Dynamical RAM for                 psi:       0.18 MB

     Dynamical RAM for                hpsi:       0.18 MB

     Dynamical RAM for                spsi:       0.18 MB

     Dynamical RAM for      wfcinit/wfcrot:       0.23 MB

     Dynamical RAM for           addusdens:      12.91 MB

     Dynamical RAM for          addusforce:      13.17 MB

     Dynamical RAM for         addusstress:      13.62 MB

     Estimated static dynamical RAM per process >      15.18 MB

     Estimated max dynamical RAM per process >      30.78 MB

     Estimated total dynamical RAM >     595.83 MB

     Check: negative core charge=   -0.000002

     Initial potential from superposition of free atoms

     starting charge      37.9791, renormalised to      38.0000
     Starting wfcs are   27 randomized atomic wfcs
     Checking if some PAW data can be deallocated... 
       PAW data deallocated on   16 nodes for type:  1
       PAW data deallocated on    8 nodes for type:  3

     total cpu time spent up to now is        2.1 secs

     Self-consistent Calculation

     iteration #  1     ecut=    40.00 Ry     beta= 0.40
     Davidson diagonalization with overlap

---- Real-time Memory Report at c_bands before calling an iterative solver
            61 MiB given to the printing process from OS
             0 MiB allocation reported by mallinfo(arena+hblkhd)
         25341 MiB available memory on the node where the printing process lives
------------------
     ethr =  1.00E-02,  avg # of iterations =  2.9

     total cpu time spent up to now is        4.3 secs

     total energy              =    -628.09736879 Ry
     estimated scf accuracy    <       0.66062810 Ry

     iteration #  2     ecut=    40.00 Ry     beta= 0.40
     Davidson diagonalization with overlap

---- Real-time Memory Report at c_bands before calling an iterative solver
            67 MiB given to the printing process from OS
             0 MiB allocation reported by mallinfo(arena+hblkhd)
         25292 MiB available memory on the node where the printing process lives
------------------
     ethr =  1.74E-03,  avg # of iterations =  5.0

     total cpu time spent up to now is        7.2 secs

     total energy              =    -628.27834282 Ry
     estimated scf accuracy    <       0.05759999 Ry

     iteration #  3     ecut=    40.00 Ry     beta= 0.40
     Davidson diagonalization with overlap

---- Real-time Memory Report at c_bands before calling an iterative solver
            68 MiB given to the printing process from OS
             0 MiB allocation reported by mallinfo(arena+hblkhd)
         25288 MiB available memory on the node where the printing process lives
------------------
     ethr =  1.52E-04,  avg # of iterations = 10.4

     total cpu time spent up to now is       10.1 secs

     total energy              =    -628.28511790 Ry
     estimated scf accuracy    <       0.00907248 Ry

     iteration #  4     ecut=    40.00 Ry     beta= 0.40
     Davidson diagonalization with overlap

---- Real-time Memory Report at c_bands before calling an iterative solver
            68 MiB given to the printing process from OS
             0 MiB allocation reported by mallinfo(arena+hblkhd)
         25283 MiB available memory on the node where the printing process lives
------------------
     ethr =  2.39E-05,  avg # of iterations =  4.9

     total cpu time spent up to now is       12.9 secs

     total energy              =    -628.28641141 Ry
     estimated scf accuracy    <       0.00188646 Ry

     iteration #  5     ecut=    40.00 Ry     beta= 0.40
     Davidson diagonalization with overlap

---- Real-time Memory Report at c_bands before calling an iterative solver
            68 MiB given to the printing process from OS
             0 MiB allocation reported by mallinfo(arena+hblkhd)
         25286 MiB available memory on the node where the printing process lives
------------------
     ethr =  4.96E-06,  avg # of iterations =  5.2

     total cpu time spent up to now is       18.2 secs

     total energy              =    -628.28673005 Ry
     estimated scf accuracy    <       0.00013148 Ry

     iteration #  6     ecut=    40.00 Ry     beta= 0.40
     Davidson diagonalization with overlap

---- Real-time Memory Report at c_bands before calling an iterative solver
            68 MiB given to the printing process from OS
             0 MiB allocation reported by mallinfo(arena+hblkhd)
         25333 MiB available memory on the node where the printing process lives
------------------
     ethr =  3.46E-07,  avg # of iterations =  2.2

     total cpu time spent up to now is       21.4 secs

     total energy              =    -628.28677230 Ry
     estimated scf accuracy    <       0.00001214 Ry

     iteration #  7     ecut=    40.00 Ry     beta= 0.40
     Davidson diagonalization with overlap

---- Real-time Memory Report at c_bands before calling an iterative solver
            68 MiB given to the printing process from OS
             0 MiB allocation reported by mallinfo(arena+hblkhd)
         25337 MiB available memory on the node where the printing process lives
------------------
     ethr =  3.19E-08,  avg # of iterations =  3.8

     total cpu time spent up to now is       23.8 secs

     total energy              =    -628.28676068 Ry
     estimated scf accuracy    <       0.00002676 Ry

     iteration #  8     ecut=    40.00 Ry     beta= 0.40
     Davidson diagonalization with overlap

---- Real-time Memory Report at c_bands before calling an iterative solver
            68 MiB given to the printing process from OS
             0 MiB allocation reported by mallinfo(arena+hblkhd)
         25329 MiB available memory on the node where the printing process lives
------------------
     ethr =  3.19E-08,  avg # of iterations =  4.0

     total cpu time spent up to now is       26.3 secs

     total energy              =    -628.28677046 Ry
     estimated scf accuracy    <       0.00001332 Ry

     iteration #  9     ecut=    40.00 Ry     beta= 0.40
     Davidson diagonalization with overlap

---- Real-time Memory Report at c_bands before calling an iterative solver
            68 MiB given to the printing process from OS
             0 MiB allocation reported by mallinfo(arena+hblkhd)
         25325 MiB available memory on the node where the printing process lives
------------------
     ethr =  3.19E-08,  avg # of iterations =  2.0

     total cpu time spent up to now is       28.2 secs

     total energy              =    -628.28677126 Ry
     estimated scf accuracy    <       0.00000192 Ry

     iteration # 10     ecut=    40.00 Ry     beta= 0.40
     Davidson diagonalization with overlap

---- Real-time Memory Report at c_bands before calling an iterative solver
            68 MiB given to the printing process from OS
             0 MiB allocation reported by mallinfo(arena+hblkhd)
         25323 MiB available memory on the node where the printing process lives
------------------
     ethr =  5.06E-09,  avg # of iterations =  2.0

     total cpu time spent up to now is       30.4 secs

     total energy              =    -628.28677112 Ry
     estimated scf accuracy    <       0.00000070 Ry

     iteration # 11     ecut=    40.00 Ry     beta= 0.40
     Davidson diagonalization with overlap

---- Real-time Memory Report at c_bands before calling an iterative solver
            68 MiB given to the printing process from OS
             0 MiB allocation reported by mallinfo(arena+hblkhd)
         25335 MiB available memory on the node where the printing process lives
------------------
     ethr =  1.84E-09,  avg # of iterations =  2.8

     total cpu time spent up to now is       32.4 secs

     End of self-consistent calculation

          k = 0.0312 0.0312 0.0312 (  2538 PWs)   bands (ev):

   -30.3728 -20.0267 -11.7290 -11.7285 -11.7285  -9.9186  -9.5956  -9.5956
    -5.0731  -5.0731  -5.0681   4.5380   4.5651   4.5651   5.0429   5.0429
     5.0709   5.7318   5.7515   5.7515  10.3083  10.3084  10.6200

     occupation numbers 
     1.0000   1.0000   1.0000   1.0000   1.0000   1.0000   1.0000   1.0000
     1.0000   1.0000   1.0000   1.0001   1.0002   1.0002   1.0702   1.0702
     1.0778   0.0492   0.0387   0.0387   0.0000   0.0000   0.0000

          k = 0.0312 0.0312 0.0938 (  2549 PWs)   bands (ev):

   -30.3725 -20.0255 -11.7992 -11.7283 -11.7279  -9.8940  -9.5947  -9.5299
    -5.0739  -5.0708  -5.0606   4.4870   4.5563   4.5647   4.9824   5.0135
     5.0620   5.6149   5.7323   5.7383  10.3977  10.4068  10.7660

     occupation numbers 
     1.0000   1.0000   1.0000   1.0000   1.0000   1.0000   1.0000   1.0000
     1.0000   1.0000   1.0000   1.0000   1.0001   1.0002   1.0499   1.0607
     1.0756   0.1674   0.0489   0.0455   0.0000   0.0000   0.0000

          k = 0.0312 0.0312 0.1562 (  2567 PWs)   bands (ev):

   -30.3719 -20.0231 -11.9155 -11.7274 -11.7268  -9.8787  -9.5930  -9.3918
    -5.0711  -5.0665  -5.0507   4.4071   4.5386   4.5480   4.8979   4.9620
     5.0242   5.3984   5.7084   5.7153  10.5639  10.5844  11.0529

     occupation numbers 
     1.0000   1.0000   1.0000   1.0000   1.0000   1.0000   1.0000   1.0000
     1.0000   1.0000   1.0000   1.0000   1.0001   1.0001   1.0246   1.0431
     1.0643   0.6770   0.0646   0.0597   0.0000   0.0000   0.0000

          k = 0.0312 0.0312 0.2188 (  2559 PWs)   bands (ev):

   -30.3712 -20.0201 -12.0477 -11.7262 -11.7254  -9.8822  -9.5908  -9.2059
    -5.0652  -5.0609  -5.0400   4.3123   4.5116   4.5182   4.8045   4.8954
     4.9709   5.1367   5.6796   5.6864  10.7842  10.8148  11.4667

     occupation numbers 
     1.0000   1.0000   1.0000   1.0000   1.0000   1.0000   1.0000   1.0000
     1.0000   1.0000   1.0000   1.0000   1.0001   1.0001   1.0085   1.0240
     1.0460   1.0818   0.0887   0.0824   0.0000   0.0000   0.0000

          k = 0.0312 0.0312 0.2812 (  2564 PWs)   bands (ev):

   -30.3704 -20.0168 -12.1730 -11.7249 -11.7238  -9.8961  -9.5884  -9.0102
    -5.0575  -5.0548  -5.0298   4.2131   4.4766   4.4771   4.7137   4.7815
     4.9141   4.9213   5.6485   5.6558  11.0278  11.0689  11.9844

     occupation numbers 
     1.0000   1.0000   1.0000   1.0000   1.0000   1.0000   1.0000   1.0000
     1.0000   1.0000   1.0000   1.0000   1.0000   1.0000   1.0024   1.0063
     1.0287   1.0307   0.1219   0.1133   0.0000   0.0000   0.0000

          k = 0.0312 0.0312 0.3438 (  2570 PWs)   bands (ev):

   -30.3697 -20.0137 -12.2769 -11.7237 -11.7224  -9.9126  -9.5862  -8.8357
    -5.0494  -5.0492  -5.0214   4.1210   4.4309   4.4400   4.5772   4.6360
     4.8445   4.8664   5.6211   5.6292  11.2594  11.3125  12.2317

     occupation numbers 
     1.0000   1.0000   1.0000   1.0000   1.0000   1.0000   1.0000   1.0000
     1.0000   1.0000   1.0000   1.0000   1.0000   1.0000   1.0002   1.0007
     1.0139   1.0178   0.1582   0.1468   0.0000   0.0000   0.0000

          k = 0.0312 0.0312 0.4062 (  2573 PWs)   bands (ev):

   -30.3692 -20.0114 -12.3503 -11.7228 -11.7213  -9.9263  -9.5845  -8.7056
    -5.0448  -5.0426  -5.0156   4.0484   4.3797   4.4078   4.4223   4.5805
     4.8121   4.8333   5.6005   5.6093  11.4425  11.5077  12.4382

     occupation numbers 
     1.0000   1.0000   1.0000   1.0000   1.0000   1.0000   1.0000   1.0000
     1.0000   1.0000   1.0000   1.0000   1.0000   1.0000   1.0000   1.0002
     1.0094   1.0122   0.1902   0.1759   0.0000   0.0000   0.0000

          k = 0.0312 0.0312 0.4688 (  2573 PWs)   bands (ev):

   -30.3689 -20.0101 -12.3881 -11.7223 -11.7207  -9.9340  -9.5836  -8.6363
    -5.0425  -5.0386  -5.0127   4.0060   4.3123   4.3805   4.3892   4.5521
     4.7977   4.8164   5.5898   5.5990  11.5444  11.6174  12.6171

     occupation numbers 
     1.0000   1.0000   1.0000   1.0000   1.0000   1.0000   1.0000   1.0000
     1.0000   1.0000   1.0000   1.0000   1.0000   1.0000   1.0000   1.0001
     1.0078   1.0099   0.2084   0.1925   0.0000   0.0000   0.0000

          k = 0.0312 0.0938 0.0938 (  2562 PWs)   bands (ev):

   -30.3722 -20.0242 -11.8001 -11.7977 -11.7276  -9.8622  -9.5560  -9.5083
    -5.0790  -5.0694  -5.0495   4.4195   4.5505   4.5805   4.9074   4.9775
     5.0820   5.5545   5.6672   5.7230  10.4797  10.5046  10.8938

     occupation numbers 
     1.0000   1.0000   1.0000   1.0000   1.0000   1.0000   1.0000   1.0000
     1.0000   1.0000   1.0000   1.0000   1.0001   1.0002   1.0270   1.0483
     1.0800   0.2760   0.1010   0.0546   0.0000   0.0000   0.0000

          k = 0.0312 0.0938 0.1562 (  2571 PWs)   bands (ev):

   -30.3716 -20.0219 -11.9155 -11.7983 -11.7266  -9.8391  -9.5414  -9.3891
    -5.0812  -5.0652  -5.0379   4.3297   4.5344   4.5784   4.8061   4.9258
     5.0738   5.3717   5.6265   5.6984  10.6310  10.6862  11.1459

     occupation numbers 
     1.0000   1.0000   1.0000   1.0000   1.0000   1.0000   1.0000   1.0000
     1.0000   1.0000   1.0000   1.0000   1.0001   1.0002   1.0087   1.0319
     1.0784   0.7484   0.1505   0.0722   0.0000   0.0000   0.0000

          k = 0.0312 0.0938 0.2188 (  2570 PWs)   bands (ev):

   -30.3709 -20.0188 -12.0480 -11.7976 -11.7252  -9.8374  -9.5382  -9.2073
    -5.0792  -5.0597  -5.0277   4.2333   4.5087   4.5532   4.6974   4.8587
     5.0298   5.1517   5.5950   5.6675  10.8373  10.9204  11.5127

     occupation numbers 
     1.0000   1.0000   1.0000   1.0000   1.0000   1.0000   1.0000   1.0000
     1.0000   1.0000   1.0000   1.0000   1.0001   1.0001   1.0018   1.0163
     1.0661   1.0786   0.1993   0.1006   0.0000   0.0000   0.0000

          k = 0.0312 0.0938 0.2812 (  2569 PWs)   bands (ev):

   -30.3701 -20.0155 -12.1736 -11.7968 -11.7238  -9.8475  -9.5361  -9.0129
    -5.0733  -5.0534  -5.0206   4.1421   4.4740   4.5069   4.5814   4.7550
     4.9068   5.0530   5.5635   5.6352  11.0726  11.1754  11.9675

     occupation numbers 
     1.0000   1.0000   1.0000   1.0000   1.0000   1.0000   1.0000   1.0000
     1.0000   1.0000   1.0000   1.0000   1.0000   1.0001   1.0002   1.0044
     1.0268   1.0732   0.2576   0.1387   0.0000   0.0000   0.0000

          k = 0.0312 0.0938 0.3438 (  2572 PWs)   bands (ev):

   -30.3694 -20.0125 -12.2776 -11.7962 -11.7225  -9.8611  -9.5343  -8.8388
    -5.0650  -5.0472  -5.0174   4.0655   4.4085   4.4393   4.4752   4.6293
     4.8328   5.0201   5.5343   5.6069  11.3026  11.4181  12.2769

     occupation numbers 
     1.0000   1.0000   1.0000   1.0000   1.0000   1.0000   1.0000   1.0000
     1.0000   1.0000   1.0000   1.0000   1.0000   1.0000   1.0000   1.0006
     1.0121   1.0629   0.3200   0.1798   0.0000   0.0000   0.0000

          k = 0.0312 0.0938 0.4062 (  2573 PWs)   bands (ev):

   -30.3689 -20.0101 -12.3511 -11.7956 -11.7215  -9.8728  -9.5329  -8.7089
    -5.0566  -5.0411  -5.0182   4.0128   4.2638   4.3995   4.4325   4.5534
     4.7982   5.0023   5.5112   5.5858  11.4881  11.6122  12.4743

     occupation numbers 
     1.0000   1.0000   1.0000   1.0000   1.0000   1.0000   1.0000   1.0000
     1.0000   1.0000   1.0000   1.0000   1.0000   1.0000   1.0000   1.0001
     1.0079   1.0568   0.3741   0.2153   0.0000   0.0000   0.0000

          k = 0.0312 0.0938 0.4688 (  2572 PWs)   bands (ev):

   -30.3686 -20.0089 -12.3891 -11.7954 -11.7209  -9.8794  -9.5322  -8.6397
    -5.0514  -5.0356  -5.0215   3.9878   4.1723   4.3777   4.4125   4.5188
     4.7830   4.9942   5.4976   5.5749  11.5929  11.7215  12.6467

     occupation numbers 
     1.0000   1.0000   1.0000   1.0000   1.0000   1.0000   1.0000   1.0000
     1.0000   1.0000   1.0000   1.0000   1.0000   1.0000   1.0000   1.0001
     1.0065   1.0540   0.4082   0.2355   0.0000   0.0000   0.0000

          k = 0.0312 0.1562 0.1562 (  2571 PWs)   bands (ev):

   -30.3711 -20.0195 -11.9175 -11.9136 -11.7256  -9.8059  -9.4450  -9.3587
    -5.0896  -5.0611  -5.0263   4.2294   4.5209   4.5945   4.6914   4.8749
     5.1006   5.2716   5.5300   5.6714  10.7570  10.8791  11.3341

     occupation numbers 
     1.0000   1.0000   1.0000   1.0000   1.0000   1.0000   1.0000   1.0000
     1.0000   1.0000   1.0000   1.0000   1.0001   1.0003   1.0017   1.0194
     1.0826   0.9672   0.3296   0.0967   0.0000   0.0000   0.0000

          k = 0.0312 0.1562 0.2188 (  2571 PWs)   bands (ev):

   -30.3704 -20.0165 -12.0486 -11.9156 -11.7243  -9.7956  -9.4159  -9.2077
    -5.0932  -5.0555  -5.0185   4.1259   4.4974   4.5725   4.5810   4.8107
     5.0533   5.1442   5.4776   5.6373  10.9376  11.1267  11.6177

     occupation numbers 
     1.0000   1.0000   1.0000   1.0000   1.0000   1.0000   1.0000   1.0000
     1.0000   1.0000   1.0000   1.0000   1.0000   1.0002   1.0002   1.0093
     1.0733   1.0804   0.4599   0.1359   0.0000   0.0000   0.0000

          k = 0.0312 0.1562 0.2812 (  2572 PWs)   bands (ev):

   -30.3696 -20.0132 -12.1747 -11.9158 -11.7229  -9.7982  -9.4135  -9.0174
    -5.0915  -5.0496  -5.0157   4.0327   4.4359   4.4710   4.5387   4.7296
     4.8958   5.1400   5.4391   5.6019  11.1550  11.3887  11.9769

     occupation numbers 
     1.0000   1.0000   1.0000   1.0000   1.0000   1.0000   1.0000   1.0000
     1.0000   1.0000   1.0000   1.0000   1.0000   1.0000   1.0001   1.0030
     1.0241   1.0812   0.5644   0.1878   0.0000   0.0000   0.0000

          k = 0.0312 0.1562 0.3438 (  2573 PWs)   bands (ev):

   -30.3689 -20.0101 -12.2790 -11.9159 -11.7216  -9.8053  -9.4136  -8.8445
    -5.0851  -5.0442  -5.0177   3.9613   4.2791   4.4283   4.4902   4.6400
     4.8105   5.1504   5.4006   5.5707  11.3787  11.6323  12.3249

     occupation numbers 
     1.0000   1.0000   1.0000   1.0000   1.0000   1.0000   1.0000   1.0000
     1.0000   1.0000   1.0000   1.0000   1.0000   1.0000   1.0000   1.0007
     1.0092   1.0789   0.6710   0.2434   0.0000   0.0000   0.0000

          k = 0.0312 0.1562 0.4062 (  2571 PWs)   bands (ev):

   -30.3683 -20.0078 -12.3528 -11.9160 -11.7206  -9.8124  -9.4140  -8.7150
    -5.0756  -5.0407  -5.0233   3.9239   4.1172   4.3942   4.4563   4.5751
     4.7714   5.1667   5.3640   5.5476  11.5673  11.8267  12.5273

     occupation numbers 
     1.0000   1.0000   1.0000   1.0000   1.0000   1.0000   1.0000   1.0000
     1.0000   1.0000   1.0000   1.0000   1.0000   1.0000   1.0000   1.0002
     1.0055   1.0733   0.7683   0.2906   0.0000   0.0000   0.0000

          k = 0.0312 0.1562 0.4688 (  2564 PWs)   bands (ev):

   -30.3680 -20.0065 -12.3908 -11.9161 -11.7200  -9.8166  -9.4142  -8.6460
    -5.0670  -5.0403  -5.0282   3.9318   3.9960   4.3757   4.4419   4.5408
     4.7543   5.1816   5.3387   5.5351  11.6772  11.9378  12.6924

     occupation numbers 
     1.0000   1.0000   1.0000   1.0000   1.0000   1.0000   1.0000   1.0000
     1.0000   1.0000   1.0000   1.0000   1.0000   1.0000   1.0000   1.0001
     1.0043   1.0660   0.8308   0.3180   0.0000   0.0000   0.0000

          k = 0.0312 0.2188 0.2188 (  2574 PWs)   bands (ev):

   -30.3697 -20.0134 -12.0513 -12.0475 -11.7230  -9.7767  -9.2673  -9.1805
    -5.1029  -5.0504  -5.0148   4.0123   4.4390   4.4910   4.5799   4.7503
     4.9923   5.1166   5.4128   5.5993  11.0868  11.4010  11.7909

     occupation numbers 
     1.0000   1.0000   1.0000   1.0000   1.0000   1.0000   1.0000   1.0000
     1.0000   1.0000   1.0000   1.0000   1.0000   1.0000   1.0002   1.0041
     1.0534   1.0833   0.6373   0.1920   0.0000   0.0000   0.0000

          k = 0.0312 0.2188 0.2812 (  2579 PWs)   bands (ev):

   -30.3689 -20.0101 -12.1761 -12.0504 -11.7216  -9.7710  -9.2369  -9.0218
    -5.1068  -5.0457  -5.0163   3.9072   4.3157   4.4602   4.5462   4.6806
     4.8725   5.1214   5.3929   5.5597  11.2769  11.6876  12.0302

     occupation numbers 
     1.0000   1.0000   1.0000   1.0000   1.0000   1.0000   1.0000   1.0000
     1.0000   1.0000   1.0000   1.0000   1.0000   1.0000   1.0001   1.0014
     1.0190   1.0832   0.6920   0.2653   0.0000   0.0000   0.0000

          k = 0.0312 0.2188 0.3438 (  2583 PWs)   bands (ev):

   -30.3682 -20.0070 -12.2809 -12.0513 -11.7204  -9.7709  -9.2374  -8.8517
    -5.1044  -5.0447  -5.0203   3.8235   4.1706   4.4232   4.5009   4.6127
     4.8037   5.1323   5.3782   5.5246  11.4856  11.9355  12.2808

     occupation numbers 
     1.0000   1.0000   1.0000   1.0000   1.0000   1.0000   1.0000   1.0000
     1.0000   1.0000   1.0000   1.0000   1.0000   1.0000   1.0000   1.0004
     1.0085   1.0824   0.7314   0.3422   0.0000   0.0000   0.0000

          k = 0.0312 0.2188 0.4062 (  2578 PWs)   bands (ev):

   -30.3676 -20.0047 -12.3549 -12.0520 -11.7194  -9.7725  -9.2394  -8.7230
    -5.0966  -5.0513  -5.0220   3.7717   4.0279   4.3909   4.4704   4.5665
     4.7715   5.1450   5.3620   5.4981  11.6750  12.1303  12.4445

     occupation numbers 
     1.0000   1.0000   1.0000   1.0000   1.0000   1.0000   1.0000   1.0000
     1.0000   1.0000   1.0000   1.0000   1.0000   1.0000   1.0000   1.0002
     1.0055   1.0802   0.7733   0.4069   0.0000   0.0000   0.0000

          k = 0.0312 0.2188 0.4688 (  2568 PWs)   bands (ev):

   -30.3673 -20.0034 -12.3931 -12.0524 -11.7188  -9.7738  -9.2407  -8.6542
    -5.0865  -5.0620  -5.0216   3.7531   3.9353   4.3736   4.4573   4.5434
     4.7573   5.1544   5.3510   5.4844  11.7928  12.2542  12.4964

     occupation numbers 
     1.0000   1.0000   1.0000   1.0000   1.0000   1.0000   1.0000   1.0000
     1.0000   1.0000   1.0000   1.0000   1.0000   1.0000   1.0000   1.0001
     1.0045   1.0778   0.8011   0.4421   0.0000   0.0000   0.0000

          k = 0.0312 0.2812 0.2812 (  2580 PWs)   bands (ev):

   -30.3681 -20.0068 -12.1790 -12.1763 -11.7203  -9.7579  -9.0691  -9.0033
    -5.1167  -5.0460  -5.0190   3.7849   4.2011   4.4438   4.5197   4.6211
     4.8236   5.0711   5.4220   5.5154  11.4347  12.0285  12.1180

     occupation numbers 
     1.0000   1.0000   1.0000   1.0000   1.0000   1.0000   1.0000   1.0000
     1.0000   1.0000   1.0000   1.0000   1.0000   1.0000   1.0001   1.0005
     1.0108   1.0778   0.6118   0.3641   0.0000   0.0000   0.0000

          k = 0.0312 0.2812 0.3438 (  2577 PWs)   bands (ev):

   -30.3674 -20.0037 -12.2829 -12.1792 -11.7190  -9.7513  -9.0464  -8.8588
    -5.1198  -5.0551  -5.0185   3.6827   4.0780   4.4168   4.4773   4.5606
     4.7987   5.0476   5.4529   5.4758  11.6158  12.1959  12.3477

     occupation numbers 
     1.0000   1.0000   1.0000   1.0000   1.0000   1.0000   1.0000   1.0000
     1.0000   1.0000   1.0000   1.0000   1.0000   1.0000   1.0000   1.0002
     1.0079   1.0717   0.5266   0.4648   0.0000   0.0000   0.0000

          k = 0.0312 0.2812 0.4062 (  2568 PWs)   bands (ev):

   -30.3668 -20.0013 -12.3573 -12.1803 -11.7181  -9.7481  -9.0487  -8.7316
    -5.1158  -5.0705  -5.0158   3.6128   3.9590   4.3869   4.4480   4.5196
     4.8009   5.0336   5.4466   5.4720  11.7959  12.2483  12.5453

     occupation numbers 
     1.0000   1.0000   1.0000   1.0000   1.0000   1.0000   1.0000   1.0000
     1.0000   1.0000   1.0000   1.0000   1.0000   1.0000   1.0000   1.0001
     1.0082   1.0673   0.5437   0.4749   0.0000   0.0000   0.0000

          k = 0.0312 0.2812 0.4688 (  2572 PWs)   bands (ev):

   -30.3665 -20.0001 -12.3956 -12.1810 -11.7176  -9.7468  -9.0506  -8.6631
    -5.1067  -5.0863  -5.0138   3.5781   3.8845   4.3699   4.4332   4.5013
     4.8074   5.0243   5.4309   5.4804  11.9272  12.2494  12.6445

     occupation numbers 
     1.0000   1.0000   1.0000   1.0000   1.0000   1.0000   1.0000   1.0000
     1.0000   1.0000   1.0000   1.0000   1.0000   1.0000   1.0000   1.0000
     1.0089   1.0643   0.5872   0.4526   0.0000   0.0000   0.0000

          k = 0.0312 0.3438 0.3438 (  2576 PWs)   bands (ev):

   -30.3667 -20.0006 -12.2856 -12.2842 -11.7178  -9.7394  -8.8892  -8.8505
    -5.1287  -5.0727  -5.0136   3.5640   3.9792   4.4061   4.4231   4.5050
     4.8080   5.0106   5.4321   5.5162  11.7565  12.1956  12.5950

     occupation numbers 
     1.0000   1.0000   1.0000   1.0000   1.0000   1.0000   1.0000   1.0000
     1.0000   1.0000   1.0000   1.0000   1.0000   1.0000   1.0000   1.0001
     1.0089   1.0597   0.5839   0.3622   0.0000   0.0000   0.0000

          k = 0.0312 0.3438 0.4062 (  2571 PWs)   bands (ev):

   -30.3661 -19.9982 -12.3595 -12.2863 -11.7169  -9.7322  -8.8767  -8.7394
    -5.1301  -5.0921  -5.0091   3.4805   3.8828   4.3728   4.3967   4.4640
     4.8392   4.9901   5.4000   5.5570  11.8926  12.1659  12.7187

     occupation numbers 
     1.0000   1.0000   1.0000   1.0000   1.0000   1.0000   1.0000   1.0000
     1.0000   1.0000   1.0000   1.0000   1.0000   1.0000   1.0000   1.0000
     1.0131   1.0526   0.6725   0.2709   0.0000   0.0000   0.0000

          k = 0.0312 0.3438 0.4688 (  2571 PWs)   bands (ev):

   -30.3658 -19.9970 -12.3979 -12.2872 -11.7164  -9.7288  -8.8787  -8.6714
    -5.1243  -5.1092  -5.0066   3.4378   3.8220   4.3500   4.3850   4.4463
     4.8705   4.9711   5.3829   5.5763  12.0077  12.1120  12.8141

     occupation numbers 
     1.0000   1.0000   1.0000   1.0000   1.0000   1.0000   1.0000   1.0000
     1.0000   1.0000   1.0000   1.0000   1.0000   1.0000   1.0000   1.0000
     1.0186   1.0461   0.7189   0.2328   0.0000   0.0000   0.0000

          k = 0.0312 0.4062 0.4062 (  2569 PWs)   bands (ev):

   -30.3656 -19.9959 -12.3614 -12.3609 -11.7160  -9.7221  -8.7543  -8.7391
    -5.1374  -5.1121  -5.0039   3.3877   3.8060   4.3243   4.3830   4.4205
     4.8835   4.9786   5.3651   5.6122  11.9127  12.1667  12.7949

     occupation numbers 
     1.0000   1.0000   1.0000   1.0000   1.0000   1.0000   1.0000   1.0000
     1.0000   1.0000   1.0000   1.0000   1.0000   1.0000   1.0000   1.0000
     1.0213   1.0487   0.7654   0.1715   0.0000   0.0000   0.0000

          k = 0.0312 0.4062 0.4688 (  2566 PWs)   bands (ev):

   -30.3653 -19.9946 -12.3997 -12.3621 -11.7155  -9.7171  -8.7501  -8.6778
    -5.1367  -5.1275  -5.0010   3.3407   3.7567   4.2955   4.3745   4.4008
     4.9230   4.9656   5.3464   5.6387  11.8953  12.2010  12.8575

     occupation numbers 
     1.0000   1.0000   1.0000   1.0000   1.0000   1.0000   1.0000   1.0000
     1.0000   1.0000   1.0000   1.0000   1.0000   1.0000   1.0000   1.0000
     1.0312   1.0443   0.8124   0.1341   0.0000   0.0000   0.0000

          k = 0.0312 0.4688 0.4688 (  2560 PWs)   bands (ev):

   -30.3650 -19.9933 -12.4007 -12.4006 -11.7150  -9.7113  -8.6822  -8.6805
    -5.1418  -5.1387  -4.9979   3.2910   3.7133   4.2638   4.3718   4.3764
     4.9555   4.9677   5.3268   5.6697  11.8252  12.2652  12.8847

     occupation numbers 
     1.0000   1.0000   1.0000   1.0000   1.0000   1.0000   1.0000   1.0000
     1.0000   1.0000   1.0000   1.0000   1.0000   1.0000   1.0000   1.0000
     1.0410   1.0450   0.8585   0.0984   0.0000   0.0000   0.0000

          k = 0.0938 0.0938 0.0938 (  2568 PWs)   bands (ev):

   -30.3719 -20.0229 -11.8016 -11.7971 -11.7971  -9.8189  -9.5072  -9.5072
    -5.0777  -5.0777  -5.0369   4.3500   4.5732   4.5732   4.8856   4.8856
     5.1161   5.4966   5.6559   5.6559  10.5756  10.5756  11.0080

     occupation numbers 
     1.0000   1.0000   1.0000   1.0000   1.0000   1.0000   1.0000   1.0000
     1.0000   1.0000   1.0000   1.0000   1.0002   1.0002   1.0217   1.0217
     1.0833   0.4106   0.1132   0.1132   0.0000   0.0000   0.0000

          k = 0.0938 0.0938 0.1562 (  2579 PWs)   bands (ev):

   -30.3714 -20.0206 -11.9155 -11.8000 -11.7958  -9.7832  -9.5053  -9.3863
    -5.0828  -5.0755  -5.0240   4.2570   4.5583   4.5769   4.7748   4.8436
     5.1242   5.3354   5.5996   5.6348  10.7134  10.7538  11.2316

     occupation numbers 
     1.0000   1.0000   1.0000   1.0000   1.0000   1.0000   1.0000   1.0000
     1.0000   1.0000   1.0000   1.0000   1.0002   1.0002   1.0058   1.0138
     1.0831   0.8386   0.1916   0.1392   0.0000   0.0000   0.0000

          k = 0.0938 0.0938 0.2188 (  2574 PWs)   bands (ev):

   -30.3706 -20.0176 -12.0482 -11.8001 -11.7942  -9.7753  -9.5028  -9.2080
    -5.0825  -5.0725  -5.0140   4.1617   4.5364   4.5502   4.6646   4.7711
     5.1091   5.1322   5.5594   5.6070  10.9065  10.9880  11.5557

     occupation numbers 
     1.0000   1.0000   1.0000   1.0000   1.0000   1.0000   1.0000   1.0000
     1.0000   1.0000   1.0000   1.0000   1.0001   1.0001   1.0011   1.0055
     1.0832   1.0824   0.2658   0.1797   0.0000   0.0000   0.0000

          k = 0.0938 0.0938 0.2812 (  2571 PWs)   bands (ev):

   -30.3698 -20.0143 -12.1740 -11.8002 -11.7924  -9.7826  -9.5001  -9.0149
    -5.0767  -5.0694  -5.0086   4.0768   4.4945   4.5077   4.5660   4.6246
     5.0003   5.0804   5.5215   5.5765  11.1327  11.2442  11.9529

     occupation numbers 
     1.0000   1.0000   1.0000   1.0000   1.0000   1.0000   1.0000   1.0000
     1.0000   1.0000   1.0000   1.0000   1.0000   1.0001   1.0002   1.0005
     1.0561   1.0797   0.3494   0.2325   0.0000   0.0000   0.0000

          k = 0.0938 0.0938 0.3438 (  2571 PWs)   bands (ev):

   -30.3691 -20.0112 -12.2782 -11.8002 -11.7908  -9.7946  -9.4976  -8.8414
    -5.0664  -5.0663  -5.0087   4.0122   4.3898   4.4623   4.4678   4.4966
     4.9568   5.0491   5.4858   5.5499  11.3594  11.4863  12.2869

     occupation numbers 
     1.0000   1.0000   1.0000   1.0000   1.0000   1.0000   1.0000   1.0000
     1.0000   1.0000   1.0000   1.0000   1.0000   1.0000   1.0000   1.0000
     1.0414   1.0721   0.4383   0.2858   0.0000   0.0000   0.0000

          k = 0.0938 0.0938 0.4062 (  2565 PWs)   bands (ev):

   -30.3686 -20.0089 -12.3518 -11.8003 -11.7895  -9.8053  -9.4957  -8.7117
    -5.0642  -5.0528  -5.0144   3.9760   4.2226   4.3974   4.4206   4.4638
     4.9482   5.0246   5.4571   5.5290  11.5471  11.6786  12.4971

     occupation numbers 
     1.0000   1.0000   1.0000   1.0000   1.0000   1.0000   1.0000   1.0000
     1.0000   1.0000   1.0000   1.0000   1.0000   1.0000   1.0000   1.0000
     1.0387   1.0644   0.5152   0.3319   0.0000   0.0000   0.0000

          k = 0.0938 0.0938 0.4688 (  2568 PWs)   bands (ev):

   -30.3683 -20.0076 -12.3898 -11.8004 -11.7888  -9.8114  -9.4946  -8.6425
    -5.0630  -5.0383  -5.0246   3.9689   4.1135   4.3657   4.3944   4.4481
     4.9480   5.0111   5.4400   5.5180  11.6551  11.7863  12.6782

     occupation numbers 
     1.0000   1.0000   1.0000   1.0000   1.0000   1.0000   1.0000   1.0000
     1.0000   1.0000   1.0000   1.0000   1.0000   1.0000   1.0000   1.0000
     1.0386   1.0598   0.5622   0.3579   0.0000   0.0000   0.0000

          k = 0.0938 0.1562 0.1562 (  2576 PWs)   bands (ev):

   -30.3708 -20.0183 -11.9181 -11.9128 -11.7971  -9.7303  -9.4258  -9.3574
    -5.0904  -5.0771  -5.0111   4.1597   4.5481   4.5843   4.6893   4.7864
     5.1561   5.2301   5.5206   5.5986  10.8414  10.9177  11.4017

     occupation numbers 
     1.0000   1.0000   1.0000   1.0000   1.0000   1.0000   1.0000   1.0000
     1.0000   1.0000   1.0000   1.0000   1.0001   1.0003   1.0016   1.0068
     1.0773   1.0249   0.3517   0.1932   0.0000   0.0000   0.0000

          k = 0.0938 0.1562 0.2188 (  2572 PWs)   bands (ev):

   -30.3701 -20.0152 -12.0487 -11.9153 -11.7961  -9.7115  -9.4026  -9.2073
    -5.0952  -5.0756  -5.0028   4.0621   4.5091   4.5641   4.5946   4.7254
     5.0700   5.1672   5.4637   5.5661  11.0128  11.1524  11.6529

     occupation numbers 
     1.0000   1.0000   1.0000   1.0000   1.0000   1.0000   1.0000   1.0000
     1.0000   1.0000   1.0000   1.0000   1.0001   1.0002   1.0003   1.0028
     1.0776   1.0732   0.4970   0.2525   0.0000   0.0000   0.0000

          k = 0.0938 0.1562 0.2812 (  2575 PWs)   bands (ev):

   -30.3693 -20.0119 -12.1749 -11.9154 -11.7951  -9.7117  -9.3993  -9.0184
    -5.0945  -5.0732  -5.0006   3.9788   4.4291   4.4937   4.5447   4.6054
     4.9716   5.1637   5.4187   5.5326  11.2224  11.4100  11.9669

     occupation numbers 
     1.0000   1.0000   1.0000   1.0000   1.0000   1.0000   1.0000   1.0000
     1.0000   1.0000   1.0000   1.0000   1.0000   1.0000   1.0001   1.0004
     1.0463   1.0746   0.6211   0.3238   0.0000   0.0000   0.0000

          k = 0.0938 0.1562 0.3438 (  2575 PWs)   bands (ev):

   -30.3686 -20.0089 -12.2793 -11.9155 -11.7940  -9.7182  -9.3978  -8.8461
    -5.0893  -5.0695  -5.0046   3.9201   4.2877   4.4144   4.4770   4.5270
     4.9498   5.1600   5.3731   5.5020  11.4434  11.6496  12.2690

     occupation numbers 
     1.0000   1.0000   1.0000   1.0000   1.0000   1.0000   1.0000   1.0000
     1.0000   1.0000   1.0000   1.0000   1.0000   1.0000   1.0000   1.0001
     1.0392   1.0759   0.7447   0.3971   0.0000   0.0000   0.0000

          k = 0.0938 0.1562 0.4062 (  2568 PWs)   bands (ev):

   -30.3680 -20.0065 -12.3532 -11.9156 -11.7933  -9.7252  -9.3968  -8.7169
    -5.0832  -5.0627  -5.0137   3.8953   4.1181   4.3667   4.4090   4.5028
     4.9512   5.1654   5.3289   5.4790  11.6347  11.8382  12.4880

     occupation numbers 
     1.0000   1.0000   1.0000   1.0000   1.0000   1.0000   1.0000   1.0000
     1.0000   1.0000   1.0000   1.0000   1.0000   1.0000   1.0000   1.0000
     1.0396   1.0739   0.8537   0.4562   0.0000   0.0000   0.0000

          k = 0.0938 0.1562 0.4688 (  2559 PWs)   bands (ev):

   -30.3677 -20.0053 -12.3912 -11.9156 -11.7928  -9.7293  -9.3963  -8.6479
    -5.0801  -5.0533  -5.0241   3.9147   3.9878   4.3507   4.3684   4.4901
     4.9543   5.1775   5.2962   5.4667  11.7486  11.9447  12.6437

     occupation numbers 
     1.0000   1.0000   1.0000   1.0000   1.0000   1.0000   1.0000   1.0000
     1.0000   1.0000   1.0000   1.0000   1.0000   1.0000   1.0000   1.0000
     1.0406   1.0682   0.9230   0.4890   0.0000   0.0000   0.0000

          k = 0.0938 0.2188 0.2188 (  2583 PWs)   bands (ev):

   -30.3694 -20.0122 -12.0519 -12.0466 -11.7951  -9.6830  -9.2633  -9.1788
    -5.1064  -5.0756  -4.9976   3.9602   4.4219   4.5433   4.5519   4.6943
     4.9592   5.1828   5.4022   5.5285  11.1567  11.3943  11.8101

     occupation numbers 
     1.0000   1.0000   1.0000   1.0000   1.0000   1.0000   1.0000   1.0000
     1.0000   1.0000   1.0000   1.0000   1.0000   1.0001   1.0001   1.0017
     1.0422   1.0653   0.6666   0.3332   0.0000   0.0000   0.0000

          k = 0.0938 0.2188 0.2812 (  2577 PWs)   bands (ev):

   -30.3686 -20.0089 -12.1760 -12.0499 -11.7939  -9.6747  -9.2327  -9.0214
    -5.1116  -5.0753  -4.9990   3.8706   4.3103   4.4804   4.5231   4.6173
     4.8909   5.1752   5.3824   5.4900  11.3408  11.6607  12.0188

     occupation numbers 
     1.0000   1.0000   1.0000   1.0000   1.0000   1.0000   1.0000   1.0000
     1.0000   1.0000   1.0000   1.0000   1.0000   1.0000   1.0001   1.0005
     1.0229   1.0694   0.7201   0.4276   0.0000   0.0000   0.0000

          k = 0.0938 0.2188 0.3438 (  2578 PWs)   bands (ev):

   -30.3679 -20.0058 -12.2808 -12.0506 -11.7928  -9.6739  -9.2317  -8.8521
    -5.1107  -5.0751  -5.0059   3.8038   4.1731   4.4033   4.4718   4.5487
     4.8970   5.1579   5.3689   5.4548  11.5471  11.8977  12.2315

     occupation numbers 
     1.0000   1.0000   1.0000   1.0000   1.0000   1.0000   1.0000   1.0000
     1.0000   1.0000   1.0000   1.0000   1.0000   1.0000   1.0000   1.0001
     1.0244   1.0767   0.7555   0.5214   0.0000   0.0000   0.0000

          k = 0.0938 0.2188 0.4062 (  2568 PWs)   bands (ev):

   -30.3673 -20.0035 -12.3549 -12.0512 -11.7919  -9.6753  -9.2326  -8.7236
    -5.1054  -5.0751  -5.0155   3.7686   4.0262   4.3553   4.4131   4.5233
     4.9240   5.1383   5.3560   5.4284  11.7391  12.0805  12.3798

     occupation numbers 
[...]

   -30.3645 -19.9921 -12.3537 -12.1806 -12.1625  -9.1115  -8.9772  -8.7258
    -5.1944  -5.1829  -5.0800   3.6870   3.9497   4.1137   4.2332   4.5604
     4.5928   5.3153   5.3791   5.5129  11.9675  12.0156  12.0624

     occupation numbers 
     1.0000   1.0000   1.0000   1.0000   1.0000   1.0000   1.0000   1.0000
     1.0000   1.0000   1.0000   1.0000   1.0000   1.0000   1.0000   1.0002
     1.0003   0.8838   0.7289   0.3701   0.0000   0.0000   0.0000

          k = 0.2812 0.2812 0.4688 (  2549 PWs)   bands (ev):

   -30.3642 -19.9909 -12.3920 -12.1809 -12.1613  -9.1094  -8.9750  -8.6583
    -5.2008  -5.1802  -5.0986   3.7269   3.8214   4.0930   4.2236   4.5709
     4.5949   5.3102   5.3896   5.5255  11.9693  12.0340  12.1603

     occupation numbers 
     1.0000   1.0000   1.0000   1.0000   1.0000   1.0000   1.0000   1.0000
     1.0000   1.0000   1.0000   1.0000   1.0000   1.0000   1.0000   1.0002
     1.0003   0.8947   0.7008   0.3402   0.0000   0.0000   0.0000

          k = 0.2812 0.3438 0.3438 (  2550 PWs)   bands (ev):

   -30.3644 -19.9915 -12.2825 -12.2741 -12.1698  -9.0645  -8.8693  -8.8297
    -5.2001  -5.1993  -5.0836   3.6734   4.0222   4.1671   4.1722   4.4617
     4.5881   5.3549   5.3860   5.5367  11.8916  11.9785  11.9886

     occupation numbers 
     1.0000   1.0000   1.0000   1.0000   1.0000   1.0000   1.0000   1.0000
     1.0000   1.0000   1.0000   1.0000   1.0000   1.0000   1.0000   1.0000
     1.0003   0.7913   0.7104   0.3144   0.0000   0.0000   0.0000

          k = 0.2812 0.3438 0.4062 (  2557 PWs)   bands (ev):

   -30.3638 -19.9893 -12.3526 -12.2775 -12.1684  -9.0519  -8.8497  -8.7238
    -5.2144  -5.2070  -5.1127   3.6847   3.8942   4.1142   4.1825   4.4213
     4.5965   5.3639   5.4125   5.5768  11.8412  11.9907  12.0177

     occupation numbers 
     1.0000   1.0000   1.0000   1.0000   1.0000   1.0000   1.0000   1.0000
     1.0000   1.0000   1.0000   1.0000   1.0000   1.0000   1.0000   1.0000
     1.0003   0.7684   0.6381   0.2319   0.0000   0.0000   0.0000

          k = 0.2812 0.3438 0.4688 (  2555 PWs)   bands (ev):

   -30.3635 -19.9881 -12.3909 -12.2772 -12.1676  -9.0478  -8.8474  -8.6569
    -5.2223  -5.2071  -5.1322   3.7187   3.7865   4.0899   4.1852   4.4112
     4.6021   5.3657   5.4277   5.5977  11.8167  11.9909  12.0475

     occupation numbers 
     1.0000   1.0000   1.0000   1.0000   1.0000   1.0000   1.0000   1.0000
     1.0000   1.0000   1.0000   1.0000   1.0000   1.0000   1.0000   1.0000
     1.0004   0.7638   0.5962   0.1947   0.0000   0.0000   0.0000

          k = 0.2812 0.4062 0.4062 (  2555 PWs)   bands (ev):

   -30.3633 -19.9871 -12.3534 -12.3500 -12.1668  -9.0369  -8.7337  -8.7149
    -5.2251  -5.2247  -5.1426   3.6833   3.8125   4.1327   4.1375   4.3418
     4.6047   5.3997   5.4285   5.6326  11.7332  11.9854  11.9915

     occupation numbers 
     1.0000   1.0000   1.0000   1.0000   1.0000   1.0000   1.0000   1.0000
     1.0000   1.0000   1.0000   1.0000   1.0000   1.0000   1.0000   1.0000
     1.0004   0.6735   0.5939   0.1422   0.0000   0.0000   0.0000

          k = 0.2812 0.4062 0.4688 (  2554 PWs)   bands (ev):

   -30.3630 -19.9860 -12.3900 -12.3513 -12.1658  -9.0315  -8.7239  -8.6559
    -5.2345  -5.2274  -5.1618   3.6907   3.7475   4.1094   4.1478   4.3121
     4.6093   5.4141   5.4405   5.6621  11.6748  11.9731  11.9933

     occupation numbers 
     1.0000   1.0000   1.0000   1.0000   1.0000   1.0000   1.0000   1.0000
     1.0000   1.0000   1.0000   1.0000   1.0000   1.0000   1.0000   1.0000
     1.0004   0.6337   0.5607   0.1064   0.0000   0.0000   0.0000

          k = 0.2812 0.4688 0.4688 (  2549 PWs)   bands (ev):

   -30.3627 -19.9848 -12.3898 -12.3894 -12.1647  -9.0253  -8.6567  -8.6544
    -5.2384  -5.2384  -5.1804   3.6620   3.7272   4.1240   4.1250   4.2723
     4.6124   5.4417   5.4461   5.6970  11.5958  11.9685  11.9694

     occupation numbers 
     1.0000   1.0000   1.0000   1.0000   1.0000   1.0000   1.0000   1.0000
     1.0000   1.0000   1.0000   1.0000   1.0000   1.0000   1.0000   1.0000
     1.0004   0.5574   0.5453   0.0734   0.0000   0.0000   0.0000

          k = 0.3438 0.3438 0.3438 (  2542 PWs)   bands (ev):

   -30.3637 -19.9887 -12.2856 -12.2710 -12.2710  -8.9272  -8.8232  -8.8232
    -5.2221  -5.2221  -5.1196   3.6860   4.0078   4.1113   4.1113   4.4653
     4.4653   5.4327   5.4327   5.5693  11.8312  11.9108  11.9109

     occupation numbers 
     1.0000   1.0000   1.0000   1.0000   1.0000   1.0000   1.0000   1.0000
     1.0000   1.0000   1.0000   1.0000   1.0000   1.0000   1.0000   1.0000
     1.0000   0.5822   0.5822   0.2461   0.0000   0.0000   0.0000

          k = 0.3438 0.3438 0.4062 (  2546 PWs)   bands (ev):

   -30.3631 -19.9866 -12.3506 -12.2797 -12.2686  -8.8963  -8.8182  -8.7186
    -5.2389  -5.2333  -5.1528   3.6944   3.9065   4.0739   4.1262   4.4035
     4.4679   5.4508   5.4897   5.6042  11.7655  11.8653  11.8764

     occupation numbers 
     1.0000   1.0000   1.0000   1.0000   1.0000   1.0000   1.0000   1.0000
     1.0000   1.0000   1.0000   1.0000   1.0000   1.0000   1.0000   1.0000
     1.0000   0.5324   0.4282   0.1841   0.0000   0.0000   0.0000

          k = 0.3438 0.3438 0.4688 (  2553 PWs)   bands (ev):

   -30.3628 -19.9854 -12.3887 -12.2795 -12.2673  -8.8906  -8.8154  -8.6525
    -5.2480  -5.2353  -5.1747   3.7008   3.8335   4.0551   4.1388   4.3826
     4.4691   5.4565   5.5195   5.6248  11.7299  11.8454  11.8592

     occupation numbers 
     1.0000   1.0000   1.0000   1.0000   1.0000   1.0000   1.0000   1.0000
     1.0000   1.0000   1.0000   1.0000   1.0000   1.0000   1.0000   1.0000
     1.0000   0.5167   0.3542   0.1528   0.0000   0.0000   0.0000

          k = 0.3438 0.4062 0.4062 (  2549 PWs)   bands (ev):

   -30.3626 -19.9845 -12.3510 -12.3467 -12.2718  -8.8577  -8.7257  -8.7073
    -5.2540  -5.2520  -5.1880   3.6765   3.8811   4.0770   4.0872   4.3440
     4.4440   5.5097   5.5295   5.6446  11.6691  11.7897  11.8012

     occupation numbers 
     1.0000   1.0000   1.0000   1.0000   1.0000   1.0000   1.0000   1.0000
     1.0000   1.0000   1.0000   1.0000   1.0000   1.0000   1.0000   1.0000
     1.0000   0.3779   0.3309   0.1267   0.0000   0.0000   0.0000

          k = 0.3438 0.4062 0.4688 (  2544 PWs)   bands (ev):

   -30.3623 -19.9833 -12.3871 -12.3480 -12.2708  -8.8511  -8.7149  -8.6491
    -5.2637  -5.2567  -5.2108   3.6541   3.8577   4.0602   4.0991   4.3122
     4.4425   5.5275   5.5576   5.6719  11.6078  11.7548  11.7695

     occupation numbers 
     1.0000   1.0000   1.0000   1.0000   1.0000   1.0000   1.0000   1.0000
     1.0000   1.0000   1.0000   1.0000   1.0000   1.0000   1.0000   1.0000
     1.0000   0.3355   0.2697   0.0962   0.0000   0.0000   0.0000

          k = 0.3438 0.4688 0.4688 (  2532 PWs)   bands (ev):

   -30.3620 -19.9822 -12.3864 -12.3859 -12.2696  -8.8439  -8.6486  -8.6462
    -5.2688  -5.2680  -5.2338   3.6185   3.8594   4.0760   4.0779   4.2747
     4.4394   5.5656   5.5696   5.7058  11.5269  11.7230  11.7253

     occupation numbers 
     1.0000   1.0000   1.0000   1.0000   1.0000   1.0000   1.0000   1.0000
     1.0000   1.0000   1.0000   1.0000   1.0000   1.0000   1.0000   1.0000
     1.0000   0.2535   0.2456   0.0665   0.0000   0.0000   0.0000

          k = 0.4062 0.4062 0.4062 (  2533 PWs)   bands (ev):

   -30.3620 -19.9824 -12.3510 -12.3442 -12.3442  -8.7434  -8.7015  -8.7015
    -5.2726  -5.2726  -5.2261   3.6365   3.9298   4.0537   4.0537   4.3463
     4.3463   5.5921   5.5921   5.6652  11.6039  11.6639  11.6640

     occupation numbers 
     1.0000   1.0000   1.0000   1.0000   1.0000   1.0000   1.0000   1.0000
     1.0000   1.0000   1.0000   1.0000   1.0000   1.0000   1.0000   1.0000
     1.0000   0.2043   0.2043   0.1031   0.0000   0.0000   0.0000

          k = 0.4062 0.4062 0.4688 (  2532 PWs)   bands (ev):

   -30.3617 -19.9813 -12.3848 -12.3477 -12.3428  -8.7275  -8.6983  -8.6437
    -5.2837  -5.2790  -5.2501   3.6032   3.9367   4.0365   4.0634   4.3033
     4.3474   5.6134   5.6356   5.6873  11.5456  11.5920  11.6219

     occupation numbers 
     1.0000   1.0000   1.0000   1.0000   1.0000   1.0000   1.0000   1.0000
     1.0000   1.0000   1.0000   1.0000   1.0000   1.0000   1.0000   1.0000
     1.0000   0.1696   0.1382   0.0816   0.0000   0.0000   0.0000

          k = 0.4062 0.4688 0.4688 (  2538 PWs)   bands (ev):

   -30.3614 -19.9802 -12.3838 -12.3833 -12.3438  -8.7099  -8.6423  -8.6398
    -5.2917  -5.2907  -5.2743   3.5666   3.9602   4.0428   4.0454   4.2758
     4.3277   5.6582   5.6611   5.7118  11.4745  11.5428  11.5459

     occupation numbers 
     1.0000   1.0000   1.0000   1.0000   1.0000   1.0000   1.0000   1.0000
     1.0000   1.0000   1.0000   1.0000   1.0000   1.0000   1.0000   1.0000
     1.0000   0.1107   0.1075   0.0622   0.0000   0.0000   0.0000

          k = 0.4688 0.4688 0.4688 (  2527 PWs)   bands (ev):

   -30.3611 -19.9791 -12.3827 -12.3818 -12.3818  -8.6413  -8.6363  -8.6363
    -5.3029  -5.3029  -5.2971   3.5310   4.0115   4.0296   4.0296   4.2767
     4.2767   5.7082   5.7082   5.7182  11.4431  11.4510  11.4510

     occupation numbers 
     1.0000   1.0000   1.0000   1.0000   1.0000   1.0000   1.0000   1.0000
     1.0000   1.0000   1.0000   1.0000   1.0000   1.0000   1.0000   1.0000
     1.0000   0.0648   0.0648   0.0577   0.0000   0.0000   0.0000

     the Fermi energy is     5.5006 ev

!    total energy              =    -628.28677127 Ry
     estimated scf accuracy    <       0.00000001 Ry
     smearing contrib. (-TS)   =      -0.00190891 Ry
     internal energy E=F+TS    =    -628.28486236 Ry

     The total energy is F=E-TS. E is the sum of the following terms:
     one-electron contribution =     -64.48328436 Ry
     hartree contribution      =      52.32468302 Ry
     xc contribution           =     -53.70747085 Ry
     ewald contribution        =    -166.45952522 Ry
     one-center paw contrib.   =    -395.95926495 Ry
      -> PAW hartree energy AE =      28.32974069 Ry
      -> PAW hartree energy PS =     -28.21314987 Ry
      -> PAW xc energy AE      =    -387.73037297 Ry
      -> PAW xc energy PS      =      19.01815389 Ry
      -> total E_H with PAW    =      52.44127383 Ry
      -> total E_XC with PAW   =    -422.41968993 Ry

     convergence has been achieved in  11 iterations

     Forces acting on atoms (cartesian axes, Ry/au):

     atom    1 type  1   force =     0.00000000    0.00000000    0.00000000
     atom    2 type  2   force =     0.00000000    0.00000000    0.00000000
     atom    3 type  3   force =     0.00000000    0.00000000    0.00000000
     atom    4 type  3   force =     0.00000000    0.00000000    0.00000000
     atom    5 type  3   force =     0.00000000    0.00000000    0.00000000
     The non-local contrib.  to forces
     atom    1 type  1   force =     0.00000000    0.00000000    0.00000000
     atom    2 type  2   force =     0.00000000    0.00000000    0.00000000
     atom    3 type  3   force =     0.00000000    0.00000000    0.00000000
     atom    4 type  3   force =     0.00000000    0.00000000    0.00000000
     atom    5 type  3   force =     0.00000000    0.00000000    0.00000000
     The ionic contribution  to forces
     atom    1 type  1   force =    -0.00000000   -0.00000000   -0.00000000
     atom    2 type  2   force =     0.00000000    0.00000000    0.00000000
     atom    3 type  3   force =     0.00000000    0.00000000   -0.00000000
     atom    4 type  3   force =     0.00000000   -0.00000000    0.00000000
     atom    5 type  3   force =    -0.00000000    0.00000000    0.00000000
     The local contribution  to forces
     atom    1 type  1   force =    -0.00000000    0.00000000    0.00000000
     atom    2 type  2   force =     0.00000000    0.00000000    0.00000000
     atom    3 type  3   force =     0.00000000    0.00000000   -0.00000000
     atom    4 type  3   force =     0.00000000    0.00000000    0.00000000
     atom    5 type  3   force =     0.00000000    0.00000000    0.00000000
     The core correction contribution to forces
     atom    1 type  1   force =     0.00000000    0.00000000   -0.00000000
     atom    2 type  2   force =    -0.00000000   -0.00000000    0.00000000
     atom    3 type  3   force =     0.00000000    0.00000000   -0.00000000
     atom    4 type  3   force =     0.00000000    0.00000000    0.00000000
     atom    5 type  3   force =     0.00000000    0.00000000   -0.00000000
     The Hubbard contrib.    to forces
     atom    1 type  1   force =     0.00000000    0.00000000    0.00000000
     atom    2 type  2   force =     0.00000000    0.00000000    0.00000000
     atom    3 type  3   force =     0.00000000    0.00000000    0.00000000
     atom    4 type  3   force =     0.00000000    0.00000000    0.00000000
     atom    5 type  3   force =     0.00000000    0.00000000    0.00000000
     The SCF correction term to forces
     atom    1 type  1   force =    -0.00000000   -0.00000000   -0.00000000
     atom    2 type  2   force =    -0.00000000    0.00000000   -0.00000000
     atom    3 type  3   force =     0.00000000    0.00000000    0.00000000
     atom    4 type  3   force =    -0.00000000    0.00000000   -0.00000000
     atom    5 type  3   force =     0.00000000    0.00000000   -0.00000000

     Total force =     0.000000     Total SCF correction =     0.000000


     Computing stress (Cartesian axis) and pressure

          total   stress  (Ry/bohr**3)                   (kbar)     P=      -65.79
  -0.00044726   0.00000000   0.00000000          -65.79        0.00        0.00
   0.00000000  -0.00044726   0.00000000            0.00      -65.79        0.00
   0.00000000   0.00000000  -0.00044726            0.00        0.00      -65.79

     kinetic stress (kbar)  14361.93      0.00      0.00
                                0.00  14361.93      0.00
                                0.00      0.00  14361.93

     local   stress (kbar)  -6185.30     -0.00     -0.00
                               -0.00  -6185.30      0.00
                               -0.00      0.00  -6185.30

     nonloc. stress (kbar)   4519.34      0.00      0.00
                                0.00   4519.34      0.00
                                0.00      0.00   4519.34

     hartree stress (kbar)   4272.87      0.00      0.00
                                0.00   4272.87     -0.00
                                0.00     -0.00   4272.87

     exc-cor stress (kbar)    451.52     -0.00     -0.00
                               -0.00    451.52      0.00
                               -0.00      0.00    451.52

     corecor stress (kbar)  -3892.95      0.00      0.00
                                0.00  -3892.95     -0.00
                                0.00     -0.00  -3892.95

     ewald   stress (kbar) -13593.20     -0.00     -0.00
                               -0.00 -13593.20     -0.00
                               -0.00     -0.00 -13593.20

     hubbard stress (kbar)      0.00      0.00      0.00
                                0.00      0.00      0.00
                                0.00      0.00      0.00

     DFT-D   stress (kbar)      0.00      0.00      0.00
                                0.00      0.00      0.00
                                0.00      0.00      0.00

     XDM     stress (kbar)      0.00      0.00      0.00
                                0.00      0.00      0.00
                                0.00      0.00      0.00

     dft-nl  stress (kbar)      0.00      0.00      0.00
                                0.00      0.00      0.00
                                0.00      0.00      0.00

     TS-vdW  stress (kbar)      0.00      0.00      0.00
                                0.00      0.00      0.00
                                0.00      0.00      0.00

     MDB     stress (kbar)      0.00      0.00      0.00
                                0.00      0.00      0.00
                                0.00      0.00      0.00

     3D-RISM stress (kbar)      0.00      0.00      0.00
                                0.00      0.00      0.00
                                0.00      0.00      0.00


     Writing all to output data dir ./out/BCO.save/ :
     XML data file, charge density, pseudopotentials, collected wavefunctions

     init_run     :      1.45s CPU      1.51s WALL (       1 calls)
     electrons    :     28.82s CPU     30.39s WALL (       1 calls)
     forces       :      0.34s CPU      0.37s WALL (       1 calls)
     stress       :      1.19s CPU      1.19s WALL (       1 calls)

     Called by init_run:
     wfcinit      :      0.49s CPU      0.50s WALL (       1 calls)
     wfcinit:atom :      0.00s CPU      0.01s WALL (      60 calls)
     wfcinit:wfcr :      0.46s CPU      0.48s WALL (      60 calls)
     potinit      :      0.30s CPU      0.32s WALL (       1 calls)
     hinit0       :      0.44s CPU      0.45s WALL (       1 calls)

     Called by electrons:
     c_bands      :     23.90s CPU     24.91s WALL (      11 calls)
     sum_band     :      3.40s CPU      3.80s WALL (      11 calls)
     v_of_rho     :      0.15s CPU      0.16s WALL (      12 calls)
     v_h          :      0.02s CPU      0.02s WALL (      12 calls)
     v_xc         :      0.15s CPU      0.17s WALL (      14 calls)
     newd         :      0.58s CPU      0.63s WALL (      12 calls)
     PAW_pot      :      0.82s CPU      0.89s WALL (      12 calls)
     mix_rho      :      0.01s CPU      0.02s WALL (      11 calls)

     Called by c_bands:
     init_us_2    :      0.19s CPU      0.21s WALL (    1500 calls)
     init_us_2:cp :      0.19s CPU      0.21s WALL (    1500 calls)
     cegterg      :     20.54s CPU     21.42s WALL (     660 calls)

     Called by sum_band:
     sum_band:wei :      0.02s CPU      0.02s WALL (      11 calls)
     sum_band:loo :      2.65s CPU      3.01s WALL (      11 calls)
     sum_band:buf :      0.02s CPU      0.02s WALL (     660 calls)
     sum_band:ini :      0.07s CPU      0.08s WALL (     660 calls)
     sum_band:cal :      0.68s CPU      0.78s WALL (     660 calls)
     sum_band:bec :      0.02s CPU      0.02s WALL (     660 calls)
     addusdens    :      0.52s CPU      0.55s WALL (      11 calls)
                                        0.00s GPU  (      11 calls)
     addusd:skk   :      0.00s CPU      0.00s WALL (      33 calls)
                                        0.00s GPU  (      33 calls)

     Called by *egterg:
     cdiaghg      :      2.30s CPU      2.37s WALL (    3391 calls)
     cegterg:over :      2.02s CPU      2.12s WALL (    2731 calls)
     cegterg:upda :      0.67s CPU      0.68s WALL (    2731 calls)
     cegterg:last :      1.59s CPU      1.63s WALL (    1435 calls)
     h_psi        :     11.36s CPU     11.92s WALL (    3451 calls)
     s_psi        :      1.42s CPU      1.45s WALL (    3451 calls)
     g_psi        :      0.03s CPU      0.03s WALL (    2731 calls)

     Called by h_psi:
     h_psi:calbec :      1.78s CPU      1.88s WALL (    3451 calls)
     vloc_psi     :      8.10s CPU      8.54s WALL (    3451 calls)
     add_vuspsi   :      1.43s CPU      1.45s WALL (    3451 calls)

     General routines
     calbec       :      2.79s CPU      3.01s WALL (    4411 calls)
     fft          :      0.27s CPU      0.29s WALL (     179 calls)
     ffts         :      0.17s CPU      0.17s WALL (      23 calls)
     fftw         :      8.96s CPU      9.57s WALL (   99392 calls)
     interpolate  :      0.18s CPU      0.18s WALL (      12 calls)

     Parallel routines

     PAW routines
     PAW_pot      :      0.82s CPU      0.89s WALL (      12 calls)
     PAW_symme    :      0.03s CPU      0.03s WALL (      23 calls)

     PWSCF        :     32.65s CPU     34.39s WALL


   This run was terminated on:  19: 4:24   7Apr2025            

=------------------------------------------------------------------------------=
   JOB DONE.
=------------------------------------------------------------------------------=
