
     Program PWSCF v.7.3 starts on  7Apr2025 at 19: 5:14 

     This program is part of the open-source Quantum ESPRESSO suite
     for quantum simulation of materials; please cite
         "P. Giannozzi et al., J. Phys.:Condens. Matter 21 395502 (2009);
         "P. Giannozzi et al., J. Phys.:Condens. Matter 29 465901 (2017);
         "P. Giannozzi et al., J. Chem. Phys. 152 154105 (2020);
          URL http://www.quantum-espresso.org", 
     in publications or presentations arising from this work. More details at
     http://www.quantum-espresso.org/quote

     Parallel version (MPI), running on    20 processors

     MPI processes distributed on     1 nodes
     26124 MiB available memory on the printing compute node when the environment starts

     Waiting for input...
     Reading input from standard input

     Current dimensions of program PWSCF are:
     Max number of different atomic species (ntypx) = 10
     Max number of k-points (npk) = 120000
     Max angular momentum in pseudopotentials (lmaxx) =  4
     file Ba.pbesol-spn-kjpaw_psl.1.0.0.UPF: wavefunction(s)  5S 6S renormalized
     file O.pbesol-n-kjpaw_psl.0.1.UPF: wavefunction(s)  2P renormalized
     Message from routine setup:
     using ibrav=0 with symmetry is DISCOURAGED, use correct ibrav instead

     K-points division:     npool     =       2
     R & G space division:  proc/nbgrp/npool/nimage =      10
     Subspace diagonalization in iterative solution of the eigenvalue problem:
     a serial algorithm will be used


     Parallelization info
     --------------------
     sticks:   dense  smooth     PW     G-vecs:    dense   smooth      PW
     Min         224      88     27                 8096     2036     339
     Max         225      90     28                 8101     2039     342
     Sum        2249     889    277                80989    20377    3407

     Using Slab Decomposition



     bravais-lattice index     =            0
     lattice parameter (alat)  =       8.4365  a.u.
     unit-cell volume          =     600.4730 (a.u.)^3
     number of atoms/cell      =            5
     number of atomic types    =            3
     number of electrons       =        38.00
     number of Kohn-Sham states=           23
     kinetic-energy cutoff     =      40.0000  Ry
     charge density cutoff     =     400.0000  Ry
     scf convergence threshold =      1.0E-07
     mixing beta               =       0.4000
     number of iterations used =            8  plain     mixing
     Exchange-correlation= SLA  PW   PSX  PSC
                           (   1   4  10   8   0   0   0)

     celldm(1)=   8.436542  celldm(2)=   0.000000  celldm(3)=   0.000000
     celldm(4)=   0.000000  celldm(5)=   0.000000  celldm(6)=   0.000000

     crystal axes: (cart. coord. in units of alat)
               a(1) = (   1.000000   0.000000   0.000000 )  
               a(2) = (   0.000000   1.000000   0.000000 )  
               a(3) = (   0.000000   0.000000   1.000000 )  

     reciprocal axes: (cart. coord. in units 2 pi/alat)
               b(1) = (  1.000000  0.000000  0.000000 )  
               b(2) = (  0.000000  1.000000  0.000000 )  
               b(3) = (  0.000000  0.000000  1.000000 )  


     PseudoPot. # 1 for Ba read from file:
     ./pseudo/Ba.pbesol-spn-kjpaw_psl.1.0.0.UPF
     MD5 check sum: f28c4a63d325c1a0d00fd3a4f19b8d73
     Pseudo is Projector augmented-wave + core cor, Zval = 10.0
     Generated using "atomic" code by A. Dal Corso  v.6.0 svn rev. 13079
     Shape of augmentation charge: PSQ
     Using radial grid of 1251 points,  7 beta functions with: 
                l(1) =   0
                l(2) =   0
                l(3) =   0
                l(4) =   1
                l(5) =   1
                l(6) =   2
                l(7) =   2
     Q(r) pseudized with 0 coefficients 


     PseudoPot. # 2 for Ca read from file:
     ./pseudo/ca_pbesol_v1.uspp.F.UPF
     MD5 check sum: 0533207b58cddeaa036efa5b63902087
     Pseudo is Ultrasoft + core correction, Zval = 10.0
     Generated by new atomic code, or converted to UPF format
     Using radial grid of  845 points,  6 beta functions with: 
                l(1) =   0
                l(2) =   0
                l(3) =   1
                l(4) =   1
                l(5) =   2
                l(6) =   2
     Q(r) pseudized with  8 coefficients,  rinner =    1.500   1.500   1.500
                                                       1.500   1.500

     PseudoPot. # 3 for O  read from file:
     ./pseudo/O.pbesol-n-kjpaw_psl.0.1.UPF
     MD5 check sum: 81d73d1479e654e5638b0319f0d6c2c7
     Pseudo is Projector augmented-wave + core cor, Zval =  6.0
     Generated using "atomic" code by A. Dal Corso  v.6.0 svn rev. 13079
     Shape of augmentation charge: BESSEL
     Using radial grid of 1095 points,  4 beta functions with: 
                l(1) =   0
                l(2) =   0
                l(3) =   1
                l(4) =   1
     Q(r) pseudized with 0 coefficients 


     atomic species   valence    mass     pseudopotential
     Ba               10.00   137.32700     Ba( 1.00)
     Ca               10.00    40.07800     Ca( 1.00)
     O                 6.00    15.99940     O ( 1.00)

     48 Sym. Ops., with inversion, found


                                    s                        frac. trans.

      isym =  1     identity                                     

 cryst.   s( 1) = (     1          0          0      )
                  (     0          1          0      )
                  (     0          0          1      )

 cart.    s( 1) = (  1.0000000  0.0000000  0.0000000 )
                  (  0.0000000  1.0000000  0.0000000 )
                  (  0.0000000  0.0000000  1.0000000 )


      isym =  2     180 deg rotation - cart. axis [0,0,1]        

 cryst.   s( 2) = (    -1          0          0      )
                  (     0         -1          0      )
                  (     0          0          1      )

 cart.    s( 2) = ( -1.0000000  0.0000000  0.0000000 )
                  (  0.0000000 -1.0000000  0.0000000 )
                  (  0.0000000  0.0000000  1.0000000 )


      isym =  3     180 deg rotation - cart. axis [0,1,0]        

 cryst.   s( 3) = (    -1          0          0      )
                  (     0          1          0      )
                  (     0          0         -1      )

 cart.    s( 3) = ( -1.0000000  0.0000000  0.0000000 )
                  (  0.0000000  1.0000000  0.0000000 )
                  (  0.0000000  0.0000000 -1.0000000 )


      isym =  4     180 deg rotation - cart. axis [1,0,0]        

 cryst.   s( 4) = (     1          0          0      )
                  (     0         -1          0      )
                  (     0          0         -1      )

 cart.    s( 4) = (  1.0000000  0.0000000  0.0000000 )
                  (  0.0000000 -1.0000000  0.0000000 )
                  (  0.0000000  0.0000000 -1.0000000 )


      isym =  5     180 deg rotation - cart. axis [1,1,0]        

 cryst.   s( 5) = (     0          1          0      )
                  (     1          0          0      )
                  (     0          0         -1      )

 cart.    s( 5) = (  0.0000000  1.0000000  0.0000000 )
                  (  1.0000000  0.0000000  0.0000000 )
                  (  0.0000000  0.0000000 -1.0000000 )


      isym =  6     180 deg rotation - cart. axis [1,-1,0]       

 cryst.   s( 6) = (     0         -1          0      )
                  (    -1          0          0      )
                  (     0          0         -1      )

 cart.    s( 6) = (  0.0000000 -1.0000000  0.0000000 )
                  ( -1.0000000  0.0000000  0.0000000 )
                  (  0.0000000  0.0000000 -1.0000000 )


      isym =  7      90 deg rotation - cart. axis [0,0,-1]       

 cryst.   s( 7) = (     0         -1          0      )
                  (     1          0          0      )
                  (     0          0          1      )

 cart.    s( 7) = (  0.0000000  1.0000000  0.0000000 )
                  ( -1.0000000  0.0000000  0.0000000 )
                  (  0.0000000  0.0000000  1.0000000 )


      isym =  8      90 deg rotation - cart. axis [0,0,1]        

 cryst.   s( 8) = (     0          1          0      )
                  (    -1          0          0      )
                  (     0          0          1      )

 cart.    s( 8) = (  0.0000000 -1.0000000  0.0000000 )
                  (  1.0000000  0.0000000  0.0000000 )
                  (  0.0000000  0.0000000  1.0000000 )


      isym =  9     180 deg rotation - cart. axis [1,0,1]        

 cryst.   s( 9) = (     0          0          1      )
                  (     0         -1          0      )
                  (     1          0          0      )

 cart.    s( 9) = (  0.0000000  0.0000000  1.0000000 )
                  (  0.0000000 -1.0000000  0.0000000 )
                  (  1.0000000  0.0000000  0.0000000 )


      isym = 10     180 deg rotation - cart. axis [-1,0,1]       

 cryst.   s(10) = (     0          0         -1      )
                  (     0         -1          0      )
                  (    -1          0          0      )

 cart.    s(10) = (  0.0000000  0.0000000 -1.0000000 )
                  (  0.0000000 -1.0000000  0.0000000 )
                  ( -1.0000000  0.0000000  0.0000000 )


      isym = 11      90 deg rotation - cart. axis [0,1,0]        

 cryst.   s(11) = (     0          0         -1      )
                  (     0          1          0      )
                  (     1          0          0      )

 cart.    s(11) = (  0.0000000  0.0000000  1.0000000 )
                  (  0.0000000  1.0000000  0.0000000 )
                  ( -1.0000000  0.0000000  0.0000000 )


      isym = 12      90 deg rotation - cart. axis [0,-1,0]       

 cryst.   s(12) = (     0          0          1      )
                  (     0          1          0      )
                  (    -1          0          0      )

 cart.    s(12) = (  0.0000000  0.0000000 -1.0000000 )
                  (  0.0000000  1.0000000  0.0000000 )
                  (  1.0000000  0.0000000  0.0000000 )


      isym = 13     180 deg rotation - cart. axis [0,1,1]        

 cryst.   s(13) = (    -1          0          0      )
                  (     0          0          1      )
                  (     0          1          0      )

 cart.    s(13) = ( -1.0000000  0.0000000  0.0000000 )
                  (  0.0000000  0.0000000  1.0000000 )
                  (  0.0000000  1.0000000  0.0000000 )


      isym = 14     180 deg rotation - cart. axis [0,1,-1]       

 cryst.   s(14) = (    -1          0          0      )
                  (     0          0         -1      )
                  (     0         -1          0      )

 cart.    s(14) = ( -1.0000000  0.0000000  0.0000000 )
                  (  0.0000000  0.0000000 -1.0000000 )
                  (  0.0000000 -1.0000000  0.0000000 )


      isym = 15      90 deg rotation - cart. axis [-1,0,0]       

 cryst.   s(15) = (     1          0          0      )
                  (     0          0         -1      )
                  (     0          1          0      )

 cart.    s(15) = (  1.0000000  0.0000000  0.0000000 )
                  (  0.0000000  0.0000000  1.0000000 )
                  (  0.0000000 -1.0000000  0.0000000 )


      isym = 16      90 deg rotation - cart. axis [1,0,0]        

 cryst.   s(16) = (     1          0          0      )
                  (     0          0          1      )
                  (     0         -1          0      )

 cart.    s(16) = (  1.0000000  0.0000000  0.0000000 )
                  (  0.0000000  0.0000000 -1.0000000 )
                  (  0.0000000  1.0000000  0.0000000 )


      isym = 17     120 deg rotation - cart. axis [-1,-1,-1]     

 cryst.   s(17) = (     0          0          1      )
                  (     1          0          0      )
                  (     0          1          0      )

 cart.    s(17) = (  0.0000000  1.0000000  0.0000000 )
                  (  0.0000000  0.0000000  1.0000000 )
                  (  1.0000000  0.0000000  0.0000000 )


      isym = 18     120 deg rotation - cart. axis [-1,1,1]       

 cryst.   s(18) = (     0          0         -1      )
                  (    -1          0          0      )
                  (     0          1          0      )

 cart.    s(18) = (  0.0000000 -1.0000000  0.0000000 )
                  (  0.0000000  0.0000000  1.0000000 )
                  ( -1.0000000  0.0000000  0.0000000 )


      isym = 19     120 deg rotation - cart. axis [1,1,-1]       

 cryst.   s(19) = (     0          0         -1      )
                  (     1          0          0      )
                  (     0         -1          0      )

 cart.    s(19) = (  0.0000000  1.0000000  0.0000000 )
                  (  0.0000000  0.0000000 -1.0000000 )
                  ( -1.0000000  0.0000000  0.0000000 )


      isym = 20     120 deg rotation - cart. axis [1,-1,1]       

 cryst.   s(20) = (     0          0          1      )
                  (    -1          0          0      )
                  (     0         -1          0      )

 cart.    s(20) = (  0.0000000 -1.0000000  0.0000000 )
                  (  0.0000000  0.0000000 -1.0000000 )
                  (  1.0000000  0.0000000  0.0000000 )


      isym = 21     120 deg rotation - cart. axis [1,1,1]        

 cryst.   s(21) = (     0          1          0      )
                  (     0          0          1      )
                  (     1          0          0      )

 cart.    s(21) = (  0.0000000  0.0000000  1.0000000 )
                  (  1.0000000  0.0000000  0.0000000 )
                  (  0.0000000  1.0000000  0.0000000 )


      isym = 22     120 deg rotation - cart. axis [-1,1,-1]      

 cryst.   s(22) = (     0         -1          0      )
                  (     0          0         -1      )
                  (     1          0          0      )

 cart.    s(22) = (  0.0000000  0.0000000  1.0000000 )
                  ( -1.0000000  0.0000000  0.0000000 )
                  (  0.0000000 -1.0000000  0.0000000 )


      isym = 23     120 deg rotation - cart. axis [1,-1,-1]      

 cryst.   s(23) = (     0         -1          0      )
                  (     0          0          1      )
                  (    -1          0          0      )

 cart.    s(23) = (  0.0000000  0.0000000 -1.0000000 )
                  ( -1.0000000  0.0000000  0.0000000 )
                  (  0.0000000  1.0000000  0.0000000 )


      isym = 24     120 deg rotation - cart. axis [-1,-1,1]      

 cryst.   s(24) = (     0          1          0      )
                  (     0          0         -1      )
                  (    -1          0          0      )

 cart.    s(24) = (  0.0000000  0.0000000 -1.0000000 )
                  (  1.0000000  0.0000000  0.0000000 )
                  (  0.0000000 -1.0000000  0.0000000 )


      isym = 25     inversion                                    

 cryst.   s(25) = (    -1          0          0      )
                  (     0         -1          0      )
                  (     0          0         -1      )

 cart.    s(25) = ( -1.0000000  0.0000000  0.0000000 )
                  (  0.0000000 -1.0000000  0.0000000 )
                  (  0.0000000  0.0000000 -1.0000000 )


      isym = 26     inv. 180 deg rotation - cart. axis [0,0,1]   

 cryst.   s(26) = (     1          0          0      )
                  (     0          1          0      )
                  (     0          0         -1      )

 cart.    s(26) = (  1.0000000  0.0000000  0.0000000 )
                  (  0.0000000  1.0000000  0.0000000 )
                  (  0.0000000  0.0000000 -1.0000000 )


      isym = 27     inv. 180 deg rotation - cart. axis [0,1,0]   

 cryst.   s(27) = (     1          0          0      )
                  (     0         -1          0      )
                  (     0          0          1      )

 cart.    s(27) = (  1.0000000  0.0000000  0.0000000 )
                  (  0.0000000 -1.0000000  0.0000000 )
                  (  0.0000000  0.0000000  1.0000000 )


      isym = 28     inv. 180 deg rotation - cart. axis [1,0,0]   

 cryst.   s(28) = (    -1          0          0      )
                  (     0          1          0      )
                  (     0          0          1      )

 cart.    s(28) = ( -1.0000000  0.0000000  0.0000000 )
                  (  0.0000000  1.0000000  0.0000000 )
                  (  0.0000000  0.0000000  1.0000000 )


      isym = 29     inv. 180 deg rotation - cart. axis [1,1,0]   

 cryst.   s(29) = (     0         -1          0      )
                  (    -1          0          0      )
                  (     0          0          1      )

 cart.    s(29) = (  0.0000000 -1.0000000  0.0000000 )
                  ( -1.0000000  0.0000000  0.0000000 )
                  (  0.0000000  0.0000000  1.0000000 )


      isym = 30     inv. 180 deg rotation - cart. axis [1,-1,0]  

 cryst.   s(30) = (     0          1          0      )
                  (     1          0          0      )
                  (     0          0          1      )

 cart.    s(30) = (  0.0000000  1.0000000  0.0000000 )
                  (  1.0000000  0.0000000  0.0000000 )
                  (  0.0000000  0.0000000  1.0000000 )


      isym = 31     inv.  90 deg rotation - cart. axis [0,0,-1]  

 cryst.   s(31) = (     0          1          0      )
                  (    -1          0          0      )
                  (     0          0         -1      )

 cart.    s(31) = (  0.0000000 -1.0000000  0.0000000 )
                  (  1.0000000  0.0000000  0.0000000 )
                  (  0.0000000  0.0000000 -1.0000000 )


      isym = 32     inv.  90 deg rotation - cart. axis [0,0,1]   

 cryst.   s(32) = (     0         -1          0      )
                  (     1          0          0      )
                  (     0          0         -1      )

 cart.    s(32) = (  0.0000000  1.0000000  0.0000000 )
                  ( -1.0000000  0.0000000  0.0000000 )
                  (  0.0000000  0.0000000 -1.0000000 )


      isym = 33     inv. 180 deg rotation - cart. axis [1,0,1]   

 cryst.   s(33) = (     0          0         -1      )
                  (     0          1          0      )
                  (    -1          0          0      )

 cart.    s(33) = (  0.0000000  0.0000000 -1.0000000 )
                  (  0.0000000  1.0000000  0.0000000 )
                  ( -1.0000000  0.0000000  0.0000000 )


      isym = 34     inv. 180 deg rotation - cart. axis [-1,0,1]  

 cryst.   s(34) = (     0          0          1      )
                  (     0          1          0      )
                  (     1          0          0      )

 cart.    s(34) = (  0.0000000  0.0000000  1.0000000 )
                  (  0.0000000  1.0000000  0.0000000 )
                  (  1.0000000  0.0000000  0.0000000 )


      isym = 35     inv.  90 deg rotation - cart. axis [0,1,0]   

 cryst.   s(35) = (     0          0          1      )
                  (     0         -1          0      )
                  (    -1          0          0      )

 cart.    s(35) = (  0.0000000  0.0000000 -1.0000000 )
                  (  0.0000000 -1.0000000  0.0000000 )
                  (  1.0000000  0.0000000  0.0000000 )


      isym = 36     inv.  90 deg rotation - cart. axis [0,-1,0]  

 cryst.   s(36) = (     0          0         -1      )
                  (     0         -1          0      )
                  (     1          0          0      )

 cart.    s(36) = (  0.0000000  0.0000000  1.0000000 )
                  (  0.0000000 -1.0000000  0.0000000 )
                  ( -1.0000000  0.0000000  0.0000000 )


      isym = 37     inv. 180 deg rotation - cart. axis [0,1,1]   

 cryst.   s(37) = (     1          0          0      )
                  (     0          0         -1      )
                  (     0         -1          0      )

 cart.    s(37) = (  1.0000000  0.0000000  0.0000000 )
                  (  0.0000000  0.0000000 -1.0000000 )
                  (  0.0000000 -1.0000000  0.0000000 )


      isym = 38     inv. 180 deg rotation - cart. axis [0,1,-1]  

 cryst.   s(38) = (     1          0          0      )
                  (     0          0          1      )
                  (     0          1          0      )

 cart.    s(38) = (  1.0000000  0.0000000  0.0000000 )
                  (  0.0000000  0.0000000  1.0000000 )
                  (  0.0000000  1.0000000  0.0000000 )


      isym = 39     inv.  90 deg rotation - cart. axis [-1,0,0]  

 cryst.   s(39) = (    -1          0          0      )
                  (     0          0          1      )
                  (     0         -1          0      )

 cart.    s(39) = ( -1.0000000  0.0000000  0.0000000 )
                  (  0.0000000  0.0000000 -1.0000000 )
                  (  0.0000000  1.0000000  0.0000000 )


      isym = 40     inv.  90 deg rotation - cart. axis [1,0,0]   

 cryst.   s(40) = (    -1          0          0      )
                  (     0          0         -1      )
                  (     0          1          0      )

 cart.    s(40) = ( -1.0000000  0.0000000  0.0000000 )
                  (  0.0000000  0.0000000  1.0000000 )
                  (  0.0000000 -1.0000000  0.0000000 )


      isym = 41     inv. 120 deg rotation - cart. axis [-1,-1,-1]

 cryst.   s(41) = (     0          0         -1      )
                  (    -1          0          0      )
                  (     0         -1          0      )

 cart.    s(41) = (  0.0000000 -1.0000000  0.0000000 )
                  (  0.0000000  0.0000000 -1.0000000 )
                  ( -1.0000000  0.0000000  0.0000000 )


      isym = 42     inv. 120 deg rotation - cart. axis [-1,1,1]  

 cryst.   s(42) = (     0          0          1      )
                  (     1          0          0      )
                  (     0         -1          0      )

 cart.    s(42) = (  0.0000000  1.0000000  0.0000000 )
                  (  0.0000000  0.0000000 -1.0000000 )
                  (  1.0000000  0.0000000  0.0000000 )


      isym = 43     inv. 120 deg rotation - cart. axis [1,1,-1]  

 cryst.   s(43) = (     0          0          1      )
                  (    -1          0          0      )
                  (     0          1          0      )

 cart.    s(43) = (  0.0000000 -1.0000000  0.0000000 )
                  (  0.0000000  0.0000000  1.0000000 )
                  (  1.0000000  0.0000000  0.0000000 )


      isym = 44     inv. 120 deg rotation - cart. axis [1,-1,1]  

 cryst.   s(44) = (     0          0         -1      )
                  (     1          0          0      )
                  (     0          1          0      )

 cart.    s(44) = (  0.0000000  1.0000000  0.0000000 )
                  (  0.0000000  0.0000000  1.0000000 )
                  ( -1.0000000  0.0000000  0.0000000 )


      isym = 45     inv. 120 deg rotation - cart. axis [1,1,1]   

 cryst.   s(45) = (     0         -1          0      )
                  (     0          0         -1      )
                  (    -1          0          0      )

 cart.    s(45) = (  0.0000000  0.0000000 -1.0000000 )
                  ( -1.0000000  0.0000000  0.0000000 )
                  (  0.0000000 -1.0000000  0.0000000 )


      isym = 46     inv. 120 deg rotation - cart. axis [-1,1,-1] 

 cryst.   s(46) = (     0          1          0      )
                  (     0          0          1      )
                  (    -1          0          0      )

 cart.    s(46) = (  0.0000000  0.0000000 -1.0000000 )
                  (  1.0000000  0.0000000  0.0000000 )
                  (  0.0000000  1.0000000  0.0000000 )


      isym = 47     inv. 120 deg rotation - cart. axis [1,-1,-1] 

 cryst.   s(47) = (     0          1          0      )
                  (     0          0         -1      )
                  (     1          0          0      )

 cart.    s(47) = (  0.0000000  0.0000000  1.0000000 )
                  (  1.0000000  0.0000000  0.0000000 )
                  (  0.0000000 -1.0000000  0.0000000 )


      isym = 48     inv. 120 deg rotation - cart. axis [-1,-1,1] 

 cryst.   s(48) = (     0         -1          0      )
                  (     0          0          1      )
                  (     1          0          0      )

 cart.    s(48) = (  0.0000000  0.0000000  1.0000000 )
                  ( -1.0000000  0.0000000  0.0000000 )
                  (  0.0000000  1.0000000  0.0000000 )


   Cartesian axes

     site n.     atom                  positions (alat units)
         1        Ba     tau(   1) = (   0.0000000   0.0000000   0.0000000  )
         2        Ca     tau(   2) = (   0.5000000   0.5000000   0.5000000  )
         3        O      tau(   3) = (   0.5000000   0.5000000   0.0000000  )
         4        O      tau(   4) = (   0.5000000   0.0000000   0.5000000  )
         5        O      tau(   5) = (   0.0000000   0.5000000   0.5000000  )

   Crystallographic axes

     site n.     atom                  positions (cryst. coord.)
         1        Ba     tau(   1) = (  0.0000000  0.0000000  0.0000000  )
         2        Ca     tau(   2) = (  0.5000000  0.5000000  0.5000000  )
         3        O      tau(   3) = (  0.5000000  0.5000000  0.0000000  )
         4        O      tau(   4) = (  0.5000000  0.0000000  0.5000000  )
         5        O      tau(   5) = (  0.0000000  0.5000000  0.5000000  )

     number of k points=   165  Marzari-Vanderbilt smearing, width (Ry)=  0.0200
                       cart. coord. in units 2pi/alat
        k(    1) = (   0.0277778   0.0277778   0.0277778), wk =   0.0027435
        k(    2) = (   0.0277778   0.0277778   0.0833333), wk =   0.0082305
        k(    3) = (   0.0277778   0.0277778   0.1388889), wk =   0.0082305
        k(    4) = (   0.0277778   0.0277778   0.1944444), wk =   0.0082305
        k(    5) = (   0.0277778   0.0277778   0.2500000), wk =   0.0082305
        k(    6) = (   0.0277778   0.0277778   0.3055556), wk =   0.0082305
        k(    7) = (   0.0277778   0.0277778   0.3611111), wk =   0.0082305
        k(    8) = (   0.0277778   0.0277778   0.4166667), wk =   0.0082305
        k(    9) = (   0.0277778   0.0277778   0.4722222), wk =   0.0082305
        k(   10) = (   0.0277778   0.0833333   0.0833333), wk =   0.0082305
        k(   11) = (   0.0277778   0.0833333   0.1388889), wk =   0.0164609
        k(   12) = (   0.0277778   0.0833333   0.1944444), wk =   0.0164609
        k(   13) = (   0.0277778   0.0833333   0.2500000), wk =   0.0164609
        k(   14) = (   0.0277778   0.0833333   0.3055556), wk =   0.0164609
        k(   15) = (   0.0277778   0.0833333   0.3611111), wk =   0.0164609
        k(   16) = (   0.0277778   0.0833333   0.4166667), wk =   0.0164609
        k(   17) = (   0.0277778   0.0833333   0.4722222), wk =   0.0164609
        k(   18) = (   0.0277778   0.1388889   0.1388889), wk =   0.0082305
        k(   19) = (   0.0277778   0.1388889   0.1944444), wk =   0.0164609
        k(   20) = (   0.0277778   0.1388889   0.2500000), wk =   0.0164609
        k(   21) = (   0.0277778   0.1388889   0.3055556), wk =   0.0164609
        k(   22) = (   0.0277778   0.1388889   0.3611111), wk =   0.0164609
        k(   23) = (   0.0277778   0.1388889   0.4166667), wk =   0.0164609
        k(   24) = (   0.0277778   0.1388889   0.4722222), wk =   0.0164609
        k(   25) = (   0.0277778   0.1944444   0.1944444), wk =   0.0082305
        k(   26) = (   0.0277778   0.1944444   0.2500000), wk =   0.0164609
        k(   27) = (   0.0277778   0.1944444   0.3055556), wk =   0.0164609
        k(   28) = (   0.0277778   0.1944444   0.3611111), wk =   0.0164609
        k(   29) = (   0.0277778   0.1944444   0.4166667), wk =   0.0164609
        k(   30) = (   0.0277778   0.1944444   0.4722222), wk =   0.0164609
        k(   31) = (   0.0277778   0.2500000   0.2500000), wk =   0.0082305
        k(   32) = (   0.0277778   0.2500000   0.3055556), wk =   0.0164609
        k(   33) = (   0.0277778   0.2500000   0.3611111), wk =   0.0164609
        k(   34) = (   0.0277778   0.2500000   0.4166667), wk =   0.0164609
        k(   35) = (   0.0277778   0.2500000   0.4722222), wk =   0.0164609
        k(   36) = (   0.0277778   0.3055556   0.3055556), wk =   0.0082305
        k(   37) = (   0.0277778   0.3055556   0.3611111), wk =   0.0164609
        k(   38) = (   0.0277778   0.3055556   0.4166667), wk =   0.0164609
        k(   39) = (   0.0277778   0.3055556   0.4722222), wk =   0.0164609
        k(   40) = (   0.0277778   0.3611111   0.3611111), wk =   0.0082305
        k(   41) = (   0.0277778   0.3611111   0.4166667), wk =   0.0164609
        k(   42) = (   0.0277778   0.3611111   0.4722222), wk =   0.0164609
        k(   43) = (   0.0277778   0.4166667   0.4166667), wk =   0.0082305
        k(   44) = (   0.0277778   0.4166667   0.4722222), wk =   0.0164609
        k(   45) = (   0.0277778   0.4722222   0.4722222), wk =   0.0082305
        k(   46) = (   0.0833333   0.0833333   0.0833333), wk =   0.0027435
        k(   47) = (   0.0833333   0.0833333   0.1388889), wk =   0.0082305
        k(   48) = (   0.0833333   0.0833333   0.1944444), wk =   0.0082305
        k(   49) = (   0.0833333   0.0833333   0.2500000), wk =   0.0082305
        k(   50) = (   0.0833333   0.0833333   0.3055556), wk =   0.0082305
        k(   51) = (   0.0833333   0.0833333   0.3611111), wk =   0.0082305
        k(   52) = (   0.0833333   0.0833333   0.4166667), wk =   0.0082305
        k(   53) = (   0.0833333   0.0833333   0.4722222), wk =   0.0082305
        k(   54) = (   0.0833333   0.1388889   0.1388889), wk =   0.0082305
        k(   55) = (   0.0833333   0.1388889   0.1944444), wk =   0.0164609
        k(   56) = (   0.0833333   0.1388889   0.2500000), wk =   0.0164609
        k(   57) = (   0.0833333   0.1388889   0.3055556), wk =   0.0164609
        k(   58) = (   0.0833333   0.1388889   0.3611111), wk =   0.0164609
        k(   59) = (   0.0833333   0.1388889   0.4166667), wk =   0.0164609
        k(   60) = (   0.0833333   0.1388889   0.4722222), wk =   0.0164609
        k(   61) = (   0.0833333   0.1944444   0.1944444), wk =   0.0082305
        k(   62) = (   0.0833333   0.1944444   0.2500000), wk =   0.0164609
        k(   63) = (   0.0833333   0.1944444   0.3055556), wk =   0.0164609
        k(   64) = (   0.0833333   0.1944444   0.3611111), wk =   0.0164609
        k(   65) = (   0.0833333   0.1944444   0.4166667), wk =   0.0164609
        k(   66) = (   0.0833333   0.1944444   0.4722222), wk =   0.0164609
        k(   67) = (   0.0833333   0.2500000   0.2500000), wk =   0.0082305
        k(   68) = (   0.0833333   0.2500000   0.3055556), wk =   0.0164609
        k(   69) = (   0.0833333   0.2500000   0.3611111), wk =   0.0164609
        k(   70) = (   0.0833333   0.2500000   0.4166667), wk =   0.0164609
        k(   71) = (   0.0833333   0.2500000   0.4722222), wk =   0.0164609
        k(   72) = (   0.0833333   0.3055556   0.3055556), wk =   0.0082305
        k(   73) = (   0.0833333   0.3055556   0.3611111), wk =   0.0164609
        k(   74) = (   0.0833333   0.3055556   0.4166667), wk =   0.0164609
        k(   75) = (   0.0833333   0.3055556   0.4722222), wk =   0.0164609
        k(   76) = (   0.0833333   0.3611111   0.3611111), wk =   0.0082305
        k(   77) = (   0.0833333   0.3611111   0.4166667), wk =   0.0164609
        k(   78) = (   0.0833333   0.3611111   0.4722222), wk =   0.0164609
        k(   79) = (   0.0833333   0.4166667   0.4166667), wk =   0.0082305
        k(   80) = (   0.0833333   0.4166667   0.4722222), wk =   0.0164609
        k(   81) = (   0.0833333   0.4722222   0.4722222), wk =   0.0082305
        k(   82) = (   0.1388889   0.1388889   0.1388889), wk =   0.0027435
        k(   83) = (   0.1388889   0.1388889   0.1944444), wk =   0.0082305
        k(   84) = (   0.1388889   0.1388889   0.2500000), wk =   0.0082305
        k(   85) = (   0.1388889   0.1388889   0.3055556), wk =   0.0082305
        k(   86) = (   0.1388889   0.1388889   0.3611111), wk =   0.0082305
        k(   87) = (   0.1388889   0.1388889   0.4166667), wk =   0.0082305
        k(   88) = (   0.1388889   0.1388889   0.4722222), wk =   0.0082305
        k(   89) = (   0.1388889   0.1944444   0.1944444), wk =   0.0082305
        k(   90) = (   0.1388889   0.1944444   0.2500000), wk =   0.0164609
        k(   91) = (   0.1388889   0.1944444   0.3055556), wk =   0.0164609
        k(   92) = (   0.1388889   0.1944444   0.3611111), wk =   0.0164609
        k(   93) = (   0.1388889   0.1944444   0.4166667), wk =   0.0164609
        k(   94) = (   0.1388889   0.1944444   0.4722222), wk =   0.0164609
        k(   95) = (   0.1388889   0.2500000   0.2500000), wk =   0.0082305
        k(   96) = (   0.1388889   0.2500000   0.3055556), wk =   0.0164609
        k(   97) = (   0.1388889   0.2500000   0.3611111), wk =   0.0164609
        k(   98) = (   0.1388889   0.2500000   0.4166667), wk =   0.0164609
        k(   99) = (   0.1388889   0.2500000   0.4722222), wk =   0.0164609
        k(  100) = (   0.1388889   0.3055556   0.3055556), wk =   0.0082305
        k(  101) = (   0.1388889   0.3055556   0.3611111), wk =   0.0164609
        k(  102) = (   0.1388889   0.3055556   0.4166667), wk =   0.0164609
        k(  103) = (   0.1388889   0.3055556   0.4722222), wk =   0.0164609
        k(  104) = (   0.1388889   0.3611111   0.3611111), wk =   0.0082305
        k(  105) = (   0.1388889   0.3611111   0.4166667), wk =   0.0164609
        k(  106) = (   0.1388889   0.3611111   0.4722222), wk =   0.0164609
        k(  107) = (   0.1388889   0.4166667   0.4166667), wk =   0.0082305
        k(  108) = (   0.1388889   0.4166667   0.4722222), wk =   0.0164609
        k(  109) = (   0.1388889   0.4722222   0.4722222), wk =   0.0082305
        k(  110) = (   0.1944444   0.1944444   0.1944444), wk =   0.0027435
        k(  111) = (   0.1944444   0.1944444   0.2500000), wk =   0.0082305
        k(  112) = (   0.1944444   0.1944444   0.3055556), wk =   0.0082305
        k(  113) = (   0.1944444   0.1944444   0.3611111), wk =   0.0082305
        k(  114) = (   0.1944444   0.1944444   0.4166667), wk =   0.0082305
        k(  115) = (   0.1944444   0.1944444   0.4722222), wk =   0.0082305
        k(  116) = (   0.1944444   0.2500000   0.2500000), wk =   0.0082305
        k(  117) = (   0.1944444   0.2500000   0.3055556), wk =   0.0164609
        k(  118) = (   0.1944444   0.2500000   0.3611111), wk =   0.0164609
        k(  119) = (   0.1944444   0.2500000   0.4166667), wk =   0.0164609
        k(  120) = (   0.1944444   0.2500000   0.4722222), wk =   0.0164609
        k(  121) = (   0.1944444   0.3055556   0.3055556), wk =   0.0082305
        k(  122) = (   0.1944444   0.3055556   0.3611111), wk =   0.0164609
        k(  123) = (   0.1944444   0.3055556   0.4166667), wk =   0.0164609
        k(  124) = (   0.1944444   0.3055556   0.4722222), wk =   0.0164609
        k(  125) = (   0.1944444   0.3611111   0.3611111), wk =   0.0082305
        k(  126) = (   0.1944444   0.3611111   0.4166667), wk =   0.0164609
        k(  127) = (   0.1944444   0.3611111   0.4722222), wk =   0.0164609
        k(  128) = (   0.1944444   0.4166667   0.4166667), wk =   0.0082305
        k(  129) = (   0.1944444   0.4166667   0.4722222), wk =   0.0164609
        k(  130) = (   0.1944444   0.4722222   0.4722222), wk =   0.0082305
        k(  131) = (   0.2500000   0.2500000   0.2500000), wk =   0.0027435
        k(  132) = (   0.2500000   0.2500000   0.3055556), wk =   0.0082305
        k(  133) = (   0.2500000   0.2500000   0.3611111), wk =   0.0082305
        k(  134) = (   0.2500000   0.2500000   0.4166667), wk =   0.0082305
        k(  135) = (   0.2500000   0.2500000   0.4722222), wk =   0.0082305
        k(  136) = (   0.2500000   0.3055556   0.3055556), wk =   0.0082305
        k(  137) = (   0.2500000   0.3055556   0.3611111), wk =   0.0164609
        k(  138) = (   0.2500000   0.3055556   0.4166667), wk =   0.0164609
        k(  139) = (   0.2500000   0.3055556   0.4722222), wk =   0.0164609
        k(  140) = (   0.2500000   0.3611111   0.3611111), wk =   0.0082305
        k(  141) = (   0.2500000   0.3611111   0.4166667), wk =   0.0164609
        k(  142) = (   0.2500000   0.3611111   0.4722222), wk =   0.0164609
        k(  143) = (   0.2500000   0.4166667   0.4166667), wk =   0.0082305
        k(  144) = (   0.2500000   0.4166667   0.4722222), wk =   0.0164609
        k(  145) = (   0.2500000   0.4722222   0.4722222), wk =   0.0082305
        k(  146) = (   0.3055556   0.3055556   0.3055556), wk =   0.0027435
        k(  147) = (   0.3055556   0.3055556   0.3611111), wk =   0.0082305
        k(  148) = (   0.3055556   0.3055556   0.4166667), wk =   0.0082305
        k(  149) = (   0.3055556   0.3055556   0.4722222), wk =   0.0082305
        k(  150) = (   0.3055556   0.3611111   0.3611111), wk =   0.0082305
        k(  151) = (   0.3055556   0.3611111   0.4166667), wk =   0.0164609
        k(  152) = (   0.3055556   0.3611111   0.4722222), wk =   0.0164609
        k(  153) = (   0.3055556   0.4166667   0.4166667), wk =   0.0082305
        k(  154) = (   0.3055556   0.4166667   0.4722222), wk =   0.0164609
        k(  155) = (   0.3055556   0.4722222   0.4722222), wk =   0.0082305
        k(  156) = (   0.3611111   0.3611111   0.3611111), wk =   0.0027435
        k(  157) = (   0.3611111   0.3611111   0.4166667), wk =   0.0082305
        k(  158) = (   0.3611111   0.3611111   0.4722222), wk =   0.0082305
        k(  159) = (   0.3611111   0.4166667   0.4166667), wk =   0.0082305
        k(  160) = (   0.3611111   0.4166667   0.4722222), wk =   0.0164609
        k(  161) = (   0.3611111   0.4722222   0.4722222), wk =   0.0082305
        k(  162) = (   0.4166667   0.4166667   0.4166667), wk =   0.0027435
        k(  163) = (   0.4166667   0.4166667   0.4722222), wk =   0.0082305
        k(  164) = (   0.4166667   0.4722222   0.4722222), wk =   0.0082305
        k(  165) = (   0.4722222   0.4722222   0.4722222), wk =   0.0027435

                       cryst. coord.
        k(    1) = (   0.0277778   0.0277778   0.0277778), wk =   0.0027435
        k(    2) = (   0.0277778   0.0277778   0.0833333), wk =   0.0082305
        k(    3) = (   0.0277778   0.0277778   0.1388889), wk =   0.0082305
        k(    4) = (   0.0277778   0.0277778   0.1944444), wk =   0.0082305
        k(    5) = (   0.0277778   0.0277778   0.2500000), wk =   0.0082305
        k(    6) = (   0.0277778   0.0277778   0.3055556), wk =   0.0082305
        k(    7) = (   0.0277778   0.0277778   0.3611111), wk =   0.0082305
        k(    8) = (   0.0277778   0.0277778   0.4166667), wk =   0.0082305
        k(    9) = (   0.0277778   0.0277778   0.4722222), wk =   0.0082305
        k(   10) = (   0.0277778   0.0833333   0.0833333), wk =   0.0082305
        k(   11) = (   0.0277778   0.0833333   0.1388889), wk =   0.0164609
        k(   12) = (   0.0277778   0.0833333   0.1944444), wk =   0.0164609
        k(   13) = (   0.0277778   0.0833333   0.2500000), wk =   0.0164609
        k(   14) = (   0.0277778   0.0833333   0.3055556), wk =   0.0164609
        k(   15) = (   0.0277778   0.0833333   0.3611111), wk =   0.0164609
        k(   16) = (   0.0277778   0.0833333   0.4166667), wk =   0.0164609
        k(   17) = (   0.0277778   0.0833333   0.4722222), wk =   0.0164609
        k(   18) = (   0.0277778   0.1388889   0.1388889), wk =   0.0082305
        k(   19) = (   0.0277778   0.1388889   0.1944444), wk =   0.0164609
        k(   20) = (   0.0277778   0.1388889   0.2500000), wk =   0.0164609
        k(   21) = (   0.0277778   0.1388889   0.3055556), wk =   0.0164609
        k(   22) = (   0.0277778   0.1388889   0.3611111), wk =   0.0164609
        k(   23) = (   0.0277778   0.1388889   0.4166667), wk =   0.0164609
        k(   24) = (   0.0277778   0.1388889   0.4722222), wk =   0.0164609
        k(   25) = (   0.0277778   0.1944444   0.1944444), wk =   0.0082305
        k(   26) = (   0.0277778   0.1944444   0.2500000), wk =   0.0164609
        k(   27) = (   0.0277778   0.1944444   0.3055556), wk =   0.0164609
        k(   28) = (   0.0277778   0.1944444   0.3611111), wk =   0.0164609
        k(   29) = (   0.0277778   0.1944444   0.4166667), wk =   0.0164609
        k(   30) = (   0.0277778   0.1944444   0.4722222), wk =   0.0164609
        k(   31) = (   0.0277778   0.2500000   0.2500000), wk =   0.0082305
        k(   32) = (   0.0277778   0.2500000   0.3055556), wk =   0.0164609
        k(   33) = (   0.0277778   0.2500000   0.3611111), wk =   0.0164609
        k(   34) = (   0.0277778   0.2500000   0.4166667), wk =   0.0164609
        k(   35) = (   0.0277778   0.2500000   0.4722222), wk =   0.0164609
        k(   36) = (   0.0277778   0.3055556   0.3055556), wk =   0.0082305
        k(   37) = (   0.0277778   0.3055556   0.3611111), wk =   0.0164609
        k(   38) = (   0.0277778   0.3055556   0.4166667), wk =   0.0164609
        k(   39) = (   0.0277778   0.3055556   0.4722222), wk =   0.0164609
        k(   40) = (   0.0277778   0.3611111   0.3611111), wk =   0.0082305
        k(   41) = (   0.0277778   0.3611111   0.4166667), wk =   0.0164609
        k(   42) = (   0.0277778   0.3611111   0.4722222), wk =   0.0164609
        k(   43) = (   0.0277778   0.4166667   0.4166667), wk =   0.0082305
        k(   44) = (   0.0277778   0.4166667   0.4722222), wk =   0.0164609
        k(   45) = (   0.0277778   0.4722222   0.4722222), wk =   0.0082305
        k(   46) = (   0.0833333   0.0833333   0.0833333), wk =   0.0027435
        k(   47) = (   0.0833333   0.0833333   0.1388889), wk =   0.0082305
        k(   48) = (   0.0833333   0.0833333   0.1944444), wk =   0.0082305
        k(   49) = (   0.0833333   0.0833333   0.2500000), wk =   0.0082305
        k(   50) = (   0.0833333   0.0833333   0.3055556), wk =   0.0082305
        k(   51) = (   0.0833333   0.0833333   0.3611111), wk =   0.0082305
        k(   52) = (   0.0833333   0.0833333   0.4166667), wk =   0.0082305
        k(   53) = (   0.0833333   0.0833333   0.4722222), wk =   0.0082305
        k(   54) = (   0.0833333   0.1388889   0.1388889), wk =   0.0082305
        k(   55) = (   0.0833333   0.1388889   0.1944444), wk =   0.0164609
        k(   56) = (   0.0833333   0.1388889   0.2500000), wk =   0.0164609
        k(   57) = (   0.0833333   0.1388889   0.3055556), wk =   0.0164609
        k(   58) = (   0.0833333   0.1388889   0.3611111), wk =   0.0164609
        k(   59) = (   0.0833333   0.1388889   0.4166667), wk =   0.0164609
        k(   60) = (   0.0833333   0.1388889   0.4722222), wk =   0.0164609
        k(   61) = (   0.0833333   0.1944444   0.1944444), wk =   0.0082305
        k(   62) = (   0.0833333   0.1944444   0.2500000), wk =   0.0164609
        k(   63) = (   0.0833333   0.1944444   0.3055556), wk =   0.0164609
        k(   64) = (   0.0833333   0.1944444   0.3611111), wk =   0.0164609
        k(   65) = (   0.0833333   0.1944444   0.4166667), wk =   0.0164609
        k(   66) = (   0.0833333   0.1944444   0.4722222), wk =   0.0164609
        k(   67) = (   0.0833333   0.2500000   0.2500000), wk =   0.0082305
        k(   68) = (   0.0833333   0.2500000   0.3055556), wk =   0.0164609
        k(   69) = (   0.0833333   0.2500000   0.3611111), wk =   0.0164609
        k(   70) = (   0.0833333   0.2500000   0.4166667), wk =   0.0164609
        k(   71) = (   0.0833333   0.2500000   0.4722222), wk =   0.0164609
        k(   72) = (   0.0833333   0.3055556   0.3055556), wk =   0.0082305
        k(   73) = (   0.0833333   0.3055556   0.3611111), wk =   0.0164609
        k(   74) = (   0.0833333   0.3055556   0.4166667), wk =   0.0164609
        k(   75) = (   0.0833333   0.3055556   0.4722222), wk =   0.0164609
        k(   76) = (   0.0833333   0.3611111   0.3611111), wk =   0.0082305
        k(   77) = (   0.0833333   0.3611111   0.4166667), wk =   0.0164609
        k(   78) = (   0.0833333   0.3611111   0.4722222), wk =   0.0164609
        k(   79) = (   0.0833333   0.4166667   0.4166667), wk =   0.0082305
        k(   80) = (   0.0833333   0.4166667   0.4722222), wk =   0.0164609
        k(   81) = (   0.0833333   0.4722222   0.4722222), wk =   0.0082305
        k(   82) = (   0.1388889   0.1388889   0.1388889), wk =   0.0027435
        k(   83) = (   0.1388889   0.1388889   0.1944444), wk =   0.0082305
        k(   84) = (   0.1388889   0.1388889   0.2500000), wk =   0.0082305
        k(   85) = (   0.1388889   0.1388889   0.3055556), wk =   0.0082305
        k(   86) = (   0.1388889   0.1388889   0.3611111), wk =   0.0082305
        k(   87) = (   0.1388889   0.1388889   0.4166667), wk =   0.0082305
        k(   88) = (   0.1388889   0.1388889   0.4722222), wk =   0.0082305
        k(   89) = (   0.1388889   0.1944444   0.1944444), wk =   0.0082305
        k(   90) = (   0.1388889   0.1944444   0.2500000), wk =   0.0164609
        k(   91) = (   0.1388889   0.1944444   0.3055556), wk =   0.0164609
        k(   92) = (   0.1388889   0.1944444   0.3611111), wk =   0.0164609
        k(   93) = (   0.1388889   0.1944444   0.4166667), wk =   0.0164609
        k(   94) = (   0.1388889   0.1944444   0.4722222), wk =   0.0164609
        k(   95) = (   0.1388889   0.2500000   0.2500000), wk =   0.0082305
        k(   96) = (   0.1388889   0.2500000   0.3055556), wk =   0.0164609
        k(   97) = (   0.1388889   0.2500000   0.3611111), wk =   0.0164609
        k(   98) = (   0.1388889   0.2500000   0.4166667), wk =   0.0164609
        k(   99) = (   0.1388889   0.2500000   0.4722222), wk =   0.0164609
        k(  100) = (   0.1388889   0.3055556   0.3055556), wk =   0.0082305
        k(  101) = (   0.1388889   0.3055556   0.3611111), wk =   0.0164609
        k(  102) = (   0.1388889   0.3055556   0.4166667), wk =   0.0164609
        k(  103) = (   0.1388889   0.3055556   0.4722222), wk =   0.0164609
        k(  104) = (   0.1388889   0.3611111   0.3611111), wk =   0.0082305
        k(  105) = (   0.1388889   0.3611111   0.4166667), wk =   0.0164609
        k(  106) = (   0.1388889   0.3611111   0.4722222), wk =   0.0164609
        k(  107) = (   0.1388889   0.4166667   0.4166667), wk =   0.0082305
        k(  108) = (   0.1388889   0.4166667   0.4722222), wk =   0.0164609
        k(  109) = (   0.1388889   0.4722222   0.4722222), wk =   0.0082305
        k(  110) = (   0.1944444   0.1944444   0.1944444), wk =   0.0027435
        k(  111) = (   0.1944444   0.1944444   0.2500000), wk =   0.0082305
        k(  112) = (   0.1944444   0.1944444   0.3055556), wk =   0.0082305
        k(  113) = (   0.1944444   0.1944444   0.3611111), wk =   0.0082305
        k(  114) = (   0.1944444   0.1944444   0.4166667), wk =   0.0082305
        k(  115) = (   0.1944444   0.1944444   0.4722222), wk =   0.0082305
        k(  116) = (   0.1944444   0.2500000   0.2500000), wk =   0.0082305
        k(  117) = (   0.1944444   0.2500000   0.3055556), wk =   0.0164609
        k(  118) = (   0.1944444   0.2500000   0.3611111), wk =   0.0164609
        k(  119) = (   0.1944444   0.2500000   0.4166667), wk =   0.0164609
        k(  120) = (   0.1944444   0.2500000   0.4722222), wk =   0.0164609
        k(  121) = (   0.1944444   0.3055556   0.3055556), wk =   0.0082305
        k(  122) = (   0.1944444   0.3055556   0.3611111), wk =   0.0164609
        k(  123) = (   0.1944444   0.3055556   0.4166667), wk =   0.0164609
        k(  124) = (   0.1944444   0.3055556   0.4722222), wk =   0.0164609
        k(  125) = (   0.1944444   0.3611111   0.3611111), wk =   0.0082305
        k(  126) = (   0.1944444   0.3611111   0.4166667), wk =   0.0164609
        k(  127) = (   0.1944444   0.3611111   0.4722222), wk =   0.0164609
        k(  128) = (   0.1944444   0.4166667   0.4166667), wk =   0.0082305
        k(  129) = (   0.1944444   0.4166667   0.4722222), wk =   0.0164609
        k(  130) = (   0.1944444   0.4722222   0.4722222), wk =   0.0082305
        k(  131) = (   0.2500000   0.2500000   0.2500000), wk =   0.0027435
        k(  132) = (   0.2500000   0.2500000   0.3055556), wk =   0.0082305
        k(  133) = (   0.2500000   0.2500000   0.3611111), wk =   0.0082305
        k(  134) = (   0.2500000   0.2500000   0.4166667), wk =   0.0082305
        k(  135) = (   0.2500000   0.2500000   0.4722222), wk =   0.0082305
        k(  136) = (   0.2500000   0.3055556   0.3055556), wk =   0.0082305
        k(  137) = (   0.2500000   0.3055556   0.3611111), wk =   0.0164609
        k(  138) = (   0.2500000   0.3055556   0.4166667), wk =   0.0164609
        k(  139) = (   0.2500000   0.3055556   0.4722222), wk =   0.0164609
        k(  140) = (   0.2500000   0.3611111   0.3611111), wk =   0.0082305
        k(  141) = (   0.2500000   0.3611111   0.4166667), wk =   0.0164609
        k(  142) = (   0.2500000   0.3611111   0.4722222), wk =   0.0164609
        k(  143) = (   0.2500000   0.4166667   0.4166667), wk =   0.0082305
        k(  144) = (   0.2500000   0.4166667   0.4722222), wk =   0.0164609
        k(  145) = (   0.2500000   0.4722222   0.4722222), wk =   0.0082305
        k(  146) = (   0.3055556   0.3055556   0.3055556), wk =   0.0027435
        k(  147) = (   0.3055556   0.3055556   0.3611111), wk =   0.0082305
        k(  148) = (   0.3055556   0.3055556   0.4166667), wk =   0.0082305
        k(  149) = (   0.3055556   0.3055556   0.4722222), wk =   0.0082305
        k(  150) = (   0.3055556   0.3611111   0.3611111), wk =   0.0082305
        k(  151) = (   0.3055556   0.3611111   0.4166667), wk =   0.0164609
        k(  152) = (   0.3055556   0.3611111   0.4722222), wk =   0.0164609
        k(  153) = (   0.3055556   0.4166667   0.4166667), wk =   0.0082305
        k(  154) = (   0.3055556   0.4166667   0.4722222), wk =   0.0164609
        k(  155) = (   0.3055556   0.4722222   0.4722222), wk =   0.0082305
        k(  156) = (   0.3611111   0.3611111   0.3611111), wk =   0.0027435
        k(  157) = (   0.3611111   0.3611111   0.4166667), wk =   0.0082305
        k(  158) = (   0.3611111   0.3611111   0.4722222), wk =   0.0082305
        k(  159) = (   0.3611111   0.4166667   0.4166667), wk =   0.0082305
        k(  160) = (   0.3611111   0.4166667   0.4722222), wk =   0.0164609
        k(  161) = (   0.3611111   0.4722222   0.4722222), wk =   0.0082305
        k(  162) = (   0.4166667   0.4166667   0.4166667), wk =   0.0027435
        k(  163) = (   0.4166667   0.4166667   0.4722222), wk =   0.0082305
        k(  164) = (   0.4166667   0.4722222   0.4722222), wk =   0.0082305
        k(  165) = (   0.4722222   0.4722222   0.4722222), wk =   0.0027435

     Dense  grid:    80989 G-vectors     FFT dimensions: (  54,  54,  54)

     Smooth grid:    20377 G-vectors     FFT dimensions: (  36,  36,  36)

     Dynamical RAM for                 wfc:       0.09 MB

     Dynamical RAM for     wfc (w. buffer):       7.55 MB

     Dynamical RAM for           str. fact:       0.37 MB

     Dynamical RAM for           local pot:       0.00 MB

     Dynamical RAM for          nlocal pot:       0.24 MB

     Dynamical RAM for                qrad:       6.42 MB

     Dynamical RAM for          rho,v,vnew:       0.77 MB

     Dynamical RAM for               rhoin:       0.26 MB

     Dynamical RAM for            rho*nmix:       1.98 MB

     Dynamical RAM for           G-vectors:       0.48 MB

     Dynamical RAM for          h,s,v(r/c):       0.10 MB

     Dynamical RAM for          <psi|beta>:       0.02 MB

     Dynamical RAM for                 psi:       0.18 MB

     Dynamical RAM for                hpsi:       0.18 MB

     Dynamical RAM for                spsi:       0.18 MB

     Dynamical RAM for      wfcinit/wfcrot:       0.23 MB

     Dynamical RAM for           addusdens:      12.91 MB

     Dynamical RAM for          addusforce:      13.17 MB

     Dynamical RAM for         addusstress:      13.62 MB

     Estimated static dynamical RAM per process >      17.25 MB

     Estimated max dynamical RAM per process >      32.85 MB

     Estimated total dynamical RAM >     637.16 MB

     Check: negative core charge=   -0.000002

     Initial potential from superposition of free atoms

     starting charge      37.9791, renormalised to      38.0000
     Starting wfcs are   27 randomized atomic wfcs
     Checking if some PAW data can be deallocated... 
       PAW data deallocated on   16 nodes for type:  1
       PAW data deallocated on    8 nodes for type:  3

     total cpu time spent up to now is        2.3 secs

     Self-consistent Calculation

     iteration #  1     ecut=    40.00 Ry     beta= 0.40
     Davidson diagonalization with overlap

---- Real-time Memory Report at c_bands before calling an iterative solver
            61 MiB given to the printing process from OS
             0 MiB allocation reported by mallinfo(arena+hblkhd)
         25281 MiB available memory on the node where the printing process lives
------------------
     ethr =  1.00E-02,  avg # of iterations =  2.9

     total cpu time spent up to now is        6.6 secs

     total energy              =    -628.09743876 Ry
     estimated scf accuracy    <       0.66058914 Ry

     iteration #  2     ecut=    40.00 Ry     beta= 0.40
     Davidson diagonalization with overlap

---- Real-time Memory Report at c_bands before calling an iterative solver
            70 MiB given to the printing process from OS
             0 MiB allocation reported by mallinfo(arena+hblkhd)
         25197 MiB available memory on the node where the printing process lives
------------------
     ethr =  1.74E-03,  avg # of iterations =  5.0

     total cpu time spent up to now is       11.3 secs

     total energy              =    -628.27831858 Ry
     estimated scf accuracy    <       0.05744907 Ry

     iteration #  3     ecut=    40.00 Ry     beta= 0.40
     Davidson diagonalization with overlap

---- Real-time Memory Report at c_bands before calling an iterative solver
            70 MiB given to the printing process from OS
             0 MiB allocation reported by mallinfo(arena+hblkhd)
         25195 MiB available memory on the node where the printing process lives
------------------
     ethr =  1.51E-04,  avg # of iterations = 10.6

     total cpu time spent up to now is       15.8 secs

     total energy              =    -628.28510966 Ry
     estimated scf accuracy    <       0.00908971 Ry

     iteration #  4     ecut=    40.00 Ry     beta= 0.40
     Davidson diagonalization with overlap

---- Real-time Memory Report at c_bands before calling an iterative solver
            70 MiB given to the printing process from OS
             0 MiB allocation reported by mallinfo(arena+hblkhd)
         25216 MiB available memory on the node where the printing process lives
------------------
     ethr =  2.39E-05,  avg # of iterations =  4.4

     total cpu time spent up to now is       19.1 secs

     total energy              =    -628.28641498 Ry
     estimated scf accuracy    <       0.00189982 Ry

     iteration #  5     ecut=    40.00 Ry     beta= 0.40
     Davidson diagonalization with overlap

---- Real-time Memory Report at c_bands before calling an iterative solver
            70 MiB given to the printing process from OS
             0 MiB allocation reported by mallinfo(arena+hblkhd)
         25238 MiB available memory on the node where the printing process lives
------------------
     ethr =  5.00E-06,  avg # of iterations =  5.3

     total cpu time spent up to now is       22.8 secs

     total energy              =    -628.28673301 Ry
     estimated scf accuracy    <       0.00012521 Ry

     iteration #  6     ecut=    40.00 Ry     beta= 0.40
     Davidson diagonalization with overlap

---- Real-time Memory Report at c_bands before calling an iterative solver
            70 MiB given to the printing process from OS
             0 MiB allocation reported by mallinfo(arena+hblkhd)
         25245 MiB available memory on the node where the printing process lives
------------------
     ethr =  3.30E-07,  avg # of iterations =  2.1

     total cpu time spent up to now is       25.6 secs

     total energy              =    -628.28676944 Ry
     estimated scf accuracy    <       0.00001125 Ry

     iteration #  7     ecut=    40.00 Ry     beta= 0.40
     Davidson diagonalization with overlap

---- Real-time Memory Report at c_bands before calling an iterative solver
            70 MiB given to the printing process from OS
             0 MiB allocation reported by mallinfo(arena+hblkhd)
         25243 MiB available memory on the node where the printing process lives
------------------
     ethr =  2.96E-08,  avg # of iterations =  3.9

     total cpu time spent up to now is       29.0 secs

     total energy              =    -628.28675796 Ry
     estimated scf accuracy    <       0.00002843 Ry

     iteration #  8     ecut=    40.00 Ry     beta= 0.40
     Davidson diagonalization with overlap

---- Real-time Memory Report at c_bands before calling an iterative solver
            71 MiB given to the printing process from OS
             0 MiB allocation reported by mallinfo(arena+hblkhd)
         25259 MiB available memory on the node where the printing process lives
------------------
     ethr =  2.96E-08,  avg # of iterations =  4.2

     total cpu time spent up to now is       33.5 secs

     total energy              =    -628.28676835 Ry
     estimated scf accuracy    <       0.00001722 Ry

     iteration #  9     ecut=    40.00 Ry     beta= 0.40
     Davidson diagonalization with overlap

---- Real-time Memory Report at c_bands before calling an iterative solver
            71 MiB given to the printing process from OS
             0 MiB allocation reported by mallinfo(arena+hblkhd)
         25269 MiB available memory on the node where the printing process lives
------------------
     ethr =  2.96E-08,  avg # of iterations =  2.1

     total cpu time spent up to now is       38.8 secs

     total energy              =    -628.28676965 Ry
     estimated scf accuracy    <       0.00000194 Ry

     iteration # 10     ecut=    40.00 Ry     beta= 0.40
     Davidson diagonalization with overlap

---- Real-time Memory Report at c_bands before calling an iterative solver
            71 MiB given to the printing process from OS
             0 MiB allocation reported by mallinfo(arena+hblkhd)
         25274 MiB available memory on the node where the printing process lives
------------------
     ethr =  5.09E-09,  avg # of iterations =  2.1

     total cpu time spent up to now is       42.0 secs

     total energy              =    -628.28676961 Ry
     estimated scf accuracy    <       0.00000052 Ry

     iteration # 11     ecut=    40.00 Ry     beta= 0.40
     Davidson diagonalization with overlap

---- Real-time Memory Report at c_bands before calling an iterative solver
            71 MiB given to the printing process from OS
             0 MiB allocation reported by mallinfo(arena+hblkhd)
         25257 MiB available memory on the node where the printing process lives
------------------
     ethr =  1.37E-09,  avg # of iterations =  3.4

     total cpu time spent up to now is       46.6 secs

     End of self-consistent calculation

          k = 0.0278 0.0278 0.0278 (  2538 PWs)   bands (ev):

   -30.3724 -20.0269 -11.7266 -11.7262 -11.7262  -9.9215  -9.5983  -9.5983
    -5.0731  -5.0731  -5.0692   4.5432   4.5647   4.5647   5.0472   5.0472
     5.0694   5.7384   5.7539   5.7539  10.3006  10.3006  10.6083

     occupation numbers 
     1.0000   1.0000   1.0000   1.0000   1.0000   1.0000   1.0000   1.0000
     1.0000   1.0000   1.0000   1.0001   1.0002   1.0002   1.0716   1.0716
     1.0775   0.0453   0.0374   0.0374   0.0000   0.0000   0.0000

          k = 0.0278 0.0278 0.0833 (  2548 PWs)   bands (ev):

   -30.3721 -20.0259 -11.7831 -11.7260 -11.7257  -9.9007  -9.5976  -9.5468
    -5.0737  -5.0712  -5.0631   4.5024   4.5576   4.5645   4.9986   5.0238
     5.0622   5.6446   5.7387   5.7433  10.3721  10.3792  10.7246

     occupation numbers 
     1.0000   1.0000   1.0000   1.0000   1.0000   1.0000   1.0000   1.0000
     1.0000   1.0000   1.0000   1.0000   1.0002   1.0002   1.0556   1.0642
     1.0757   0.1264   0.0451   0.0427   0.0000   0.0000   0.0000

          k = 0.0278 0.0278 0.1389 (  2565 PWs)   bands (ev):

   -30.3717 -20.0240 -11.8801 -11.7252 -11.7248  -9.8837  -9.5962  -9.4369
    -5.0716  -5.0677  -5.0549   4.4367   4.5435   4.5516   4.9292   4.9814
     5.0311   5.4665   5.7191   5.7246  10.5069  10.5235  10.9542

     occupation numbers 
     1.0000   1.0000   1.0000   1.0000   1.0000   1.0000   1.0000   1.0000
     1.0000   1.0000   1.0000   1.0000   1.0001   1.0001   1.0330   1.0497
     1.0666   0.4891   0.0570   0.0534   0.0000   0.0000   0.0000

          k = 0.0278 0.0278 0.1944 (  2565 PWs)   bands (ev):

   -30.3711 -20.0215 -11.9957 -11.7242 -11.7236  -9.8822  -9.5944  -9.2815
    -5.0670  -5.0630  -5.0455   4.3553   4.5223   4.5290   4.8486   4.9266
     4.9852   5.2393   5.6946   5.7001  10.6903  10.7155  11.2885

     occupation numbers 
     1.0000   1.0000   1.0000   1.0000   1.0000   1.0000   1.0000   1.0000
     1.0000   1.0000   1.0000   1.0000   1.0001   1.0001   1.0146   1.0322
     1.0510   1.0136   0.0752   0.0707   0.0000   0.0000   0.0000

          k = 0.0278 0.0278 0.2500 (  2560 PWs)   bands (ev):

   -30.3704 -20.0186 -12.1119 -11.7230 -11.7223  -9.8918  -9.5923  -9.1071
    -5.0607  -5.0576  -5.0360   4.2675   4.4939   4.4969   4.7662   4.8578
     4.9334   5.0084   5.6673   5.6731  10.9021  10.9356  11.7141

     occupation numbers 
     1.0000   1.0000   1.0000   1.0000   1.0000   1.0000   1.0000   1.0000
     1.0000   1.0000   1.0000   1.0000   1.0000   1.0000   1.0051   1.0162
     1.0342   1.0590   0.1006   0.0948   0.0000   0.0000   0.0000

          k = 0.0278 0.0278 0.3056 (  2571 PWs)   bands (ev):

   -30.3697 -20.0157 -12.2162 -11.7219 -11.7209  -9.9060  -9.5902  -8.9383
    -5.0537  -5.0522  -5.0272   4.1796   4.4580   4.4610   4.6896   4.7120
     4.8742   4.8848   5.6408   5.6465  11.1186  11.1616  12.1102

     occupation numbers 
     1.0000   1.0000   1.0000   1.0000   1.0000   1.0000   1.0000   1.0000
     1.0000   1.0000   1.0000   1.0000   1.0000   1.0000   1.0016   1.0023
     1.0193   1.0216   0.1311   0.1240   0.0000   0.0000   0.0000

          k = 0.0278 0.0278 0.3611 (  2573 PWs)   bands (ev):

   -30.3691 -20.0132 -12.3003 -11.7208 -11.7197  -9.9204  -9.5883  -8.7942
    -5.0474  -5.0470  -5.0199   4.1009   4.4191   4.4286   4.5304   4.6264
     4.8271   4.8464   5.6180   5.6248  11.3139  11.3680  12.2858

     occupation numbers 
     1.0000   1.0000   1.0000   1.0000   1.0000   1.0000   1.0000   1.0000
     1.0000   1.0000   1.0000   1.0000   1.0000   1.0000   1.0001   1.0006
     1.0113   1.0142   0.1625   0.1526   0.0000   0.0000   0.0000

          k = 0.0278 0.0278 0.4167 (  2571 PWs)   bands (ev):

   -30.3686 -20.0113 -12.3588 -11.7200 -11.7188  -9.9317  -9.5870  -8.6894
    -5.0438  -5.0417  -5.0148   4.0404   4.3739   4.4018   4.4099   4.5818
     4.8025   4.8203   5.6018   5.6090  11.4631  11.5275  12.4703

     occupation numbers 
     1.0000   1.0000   1.0000   1.0000   1.0000   1.0000   1.0000   1.0000
     1.0000   1.0000   1.0000   1.0000   1.0000   1.0000   1.0000   1.0002
     1.0084   1.0104   0.1876   0.1761   0.0000   0.0000   0.0000

          k = 0.0278 0.0278 0.4722 (  2575 PWs)   bands (ev):

   -30.3684 -20.0103 -12.3888 -11.7196 -11.7183  -9.9379  -9.5862  -8.6343
    -5.0419  -5.0389  -5.0122   4.0056   4.3177   4.3799   4.3868   4.5589
     4.7909   4.8069   5.5934   5.6008  11.5441  11.6151  12.6222

     occupation numbers 
     1.0000   1.0000   1.0000   1.0000   1.0000   1.0000   1.0000   1.0000
     1.0000   1.0000   1.0000   1.0000   1.0000   1.0000   1.0000   1.0002
     1.0072   1.0088   0.2017   0.1892   0.0000   0.0000   0.0000

          k = 0.0278 0.0833 0.0833 (  2554 PWs)   bands (ev):

   -30.3719 -20.0249 -11.7838 -11.7818 -11.7254  -9.8749  -9.5681  -9.5283
    -5.0777  -5.0701  -5.0540   4.4480   4.5531   4.5776   4.9380   4.9944
     5.0782   5.5952   5.6863   5.7314  10.4393  10.4568  10.8294

     occupation numbers 
     1.0000   1.0000   1.0000   1.0000   1.0000   1.0000   1.0000   1.0000
     1.0000   1.0000   1.0000   1.0000   1.0001   1.0002   1.0356   1.0542
     1.0794   0.1987   0.0823   0.0493   0.0000   0.0000   0.0000

          k = 0.0278 0.0833 0.1389 (  2564 PWs)   bands (ev):

   -30.3714 -20.0230 -11.8800 -11.7822 -11.7246  -9.8519  -9.5566  -9.4334
    -5.0796  -5.0666  -5.0438   4.3733   4.5400   4.5773   4.8533   4.9521
     5.0707   5.4423   5.6528   5.7115  10.5639  10.6036  11.0366

     occupation numbers 
     1.0000   1.0000   1.0000   1.0000   1.0000   1.0000   1.0000   1.0000
     1.0000   1.0000   1.0000   1.0000   1.0001   1.0002   1.0154   1.0400
     1.0778   0.5552   0.1166   0.0622   0.0000   0.0000   0.0000

          k = 0.0278 0.0833 0.1944 (  2572 PWs)   bands (ev):

   -30.3708 -20.0205 -11.9959 -11.7815 -11.7235  -9.8462  -9.5536  -9.2819
    -5.0782  -5.0619  -5.0342   4.2890   4.5198   4.5597   4.7603   4.8971
     5.0410   5.2357   5.6261   5.6855  10.7366  10.7984  11.3402

     occupation numbers 
     1.0000   1.0000   1.0000   1.0000   1.0000   1.0000   1.0000   1.0000
     1.0000   1.0000   1.0000   1.0000   1.0001   1.0002   1.0047   1.0245
     1.0697   1.0181   0.1508   0.0830   0.0000   0.0000   0.0000

          k = 0.0278 0.0833 0.2500 (  2568 PWs)   bands (ev):

   -30.3701 -20.0176 -12.1123 -11.7807 -11.7222  -9.8528  -9.5515  -9.1089
    -5.0738  -5.0565  -5.0261   4.2041   4.4921   4.5261   4.6637   4.8258
     4.9650   5.0704   5.5987   5.6572  10.9406  11.0200  11.7266

     occupation numbers 
     1.0000   1.0000   1.0000   1.0000   1.0000   1.0000   1.0000   1.0000
     1.0000   1.0000   1.0000   1.0000   1.0000   1.0001   1.0011   1.0112
     1.0442   1.0777   0.1927   0.1116   0.0000   0.0000   0.0000

          k = 0.0278 0.0833 0.3056 (  2569 PWs)   bands (ev):

   -30.3695 -20.0147 -12.2167 -11.7800 -11.7209  -9.8647  -9.5497  -8.9406
    -5.0672  -5.0508  -5.0205   4.1261   4.4575   4.4801   4.5566   4.7102
     4.8647   5.0142   5.5713   5.6300  11.1534  11.2458  12.1422

     occupation numbers 
     1.0000   1.0000   1.0000   1.0000   1.0000   1.0000   1.0000   1.0000
     1.0000   1.0000   1.0000   1.0000   1.0000   1.0000   1.0001   1.0023
     1.0175   1.0610   0.2418   0.1454   0.0000   0.0000   0.0000

          k = 0.0278 0.0833 0.3611 (  2574 PWs)   bands (ev):

   -30.3689 -20.0122 -12.3009 -11.7793 -11.7198  -9.8773  -9.5480  -8.7967
    -5.0595  -5.0454  -5.0178   4.0612   4.3879   4.4286   4.4603   4.6084
     4.8165   4.9859   5.5480   5.6066  11.3489  11.4513  12.3210

     occupation numbers 
     1.0000   1.0000   1.0000   1.0000   1.0000   1.0000   1.0000   1.0000
     1.0000   1.0000   1.0000   1.0000   1.0000   1.0000   1.0000   1.0004
     1.0100   1.0512   0.2893   0.1799   0.0000   0.0000   0.0000

          k = 0.0278 0.0833 0.4167 (  2571 PWs)   bands (ev):

   -30.3684 -20.0103 -12.3595 -11.7788 -11.7190  -9.8874  -9.5468  -8.6921
    -5.0528  -5.0402  -5.0179   4.0153   4.2713   4.3958   4.4227   4.5511
     4.7906   4.9694   5.5298   5.5901  11.5001  11.6102  12.4983

     occupation numbers 
     1.0000   1.0000   1.0000   1.0000   1.0000   1.0000   1.0000   1.0000
     1.0000   1.0000   1.0000   1.0000   1.0000   1.0000   1.0000   1.0001
     1.0072   1.0456   0.3296   0.2073   0.0000   0.0000   0.0000

          k = 0.0278 0.0833 0.4722 (  2568 PWs)   bands (ev):

   -30.3682 -20.0093 -12.3896 -11.7785 -11.7185  -9.8929  -9.5462  -8.6370
    -5.0490  -5.0362  -5.0195   3.9919   4.2015   4.3779   4.4061   4.5248
     4.7786   4.9614   5.5195   5.5815  11.5833  11.6974  12.6455

     occupation numbers 
     1.0000   1.0000   1.0000   1.0000   1.0000   1.0000   1.0000   1.0000
     1.0000   1.0000   1.0000   1.0000   1.0000   1.0000   1.0000   1.0001
     1.0061   1.0430   0.3536   0.2227   0.0000   0.0000   0.0000

          k = 0.0278 0.1389 0.1389 (  2573 PWs)   bands (ev):

   -30.3710 -20.0212 -11.8817 -11.8781 -11.7238  -9.8209  -9.4848  -9.4048
    -5.0863  -5.0632  -5.0330   4.2885   4.5288   4.5923   4.7558   4.9098
     5.0915   5.3551   5.5703   5.6900  10.6706  10.7575  11.2016

     occupation numbers 
     1.0000   1.0000   1.0000   1.0000   1.0000   1.0000   1.0000   1.0000
     1.0000   1.0000   1.0000   1.0000   1.0001   1.0003   1.0044   1.0276
     1.0816   0.7904   0.2438   0.0791   0.0000   0.0000   0.0000

          k = 0.0278 0.1389 0.1944 (  2573 PWs)   bands (ev):

   -30.3704 -20.0186 -11.9962 -11.8797 -11.7227  -9.8082  -9.4593  -9.2801
    -5.0895  -5.0585  -5.0242   4.1977   4.5109   4.5858   4.6525   4.8557
     5.0825   5.2010   5.5232   5.6620  10.8236  10.9616  11.4486

     occupation numbers 
     1.0000   1.0000   1.0000   1.0000   1.0000   1.0000   1.0000   1.0000
     1.0000   1.0000   1.0000   1.0000   1.0001   1.0003   1.0009   1.0158
     1.0802   1.0526   0.3450   0.1063   0.0000   0.0000   0.0000

          k = 0.0278 0.1389 0.2500 (  2572 PWs)   bands (ev):

   -30.3697 -20.0157 -12.1130 -11.8796 -11.7214  -9.8089  -9.4557  -9.1118
    -5.0887  -5.0530  -5.0187   4.1110   4.4850   4.5442   4.5569   4.7912
     4.9678   5.1298   5.4899   5.6311  11.0119  11.1894  11.7690

     occupation numbers 
     1.0000   1.0000   1.0000   1.0000   1.0000   1.0000   1.0000   1.0000
     1.0000   1.0000   1.0000   1.0000   1.0000   1.0001   1.0001   1.0072
     1.0451   1.0826   0.4274   0.1439   0.0000   0.0000   0.0000

          k = 0.0278 0.1389 0.3056 (  2569 PWs)   bands (ev):

   -30.3690 -20.0128 -12.2177 -11.8796 -11.7202  -9.8157  -9.4550  -8.9449
    -5.0842  -5.0475  -5.0170   4.0364   4.4157   4.4543   4.5124   4.7077
     4.8496   5.1216   5.4583   5.6019  11.2160  11.4171  12.1274

     occupation numbers 
     1.0000   1.0000   1.0000   1.0000   1.0000   1.0000   1.0000   1.0000
     1.0000   1.0000   1.0000   1.0000   1.0000   1.0000   1.0001   1.0022
     1.0148   1.0832   0.5111   0.1875   0.0000   0.0000   0.0000

          k = 0.0278 0.1389 0.3611 (  2572 PWs)   bands (ev):

   -30.3684 -20.0103 -12.3021 -11.8795 -11.7191  -9.8240  -9.4548  -8.8015
    -5.0768  -5.0426  -5.0189   3.9813   4.2672   4.4194   4.4717   4.6265
     4.7921   5.1226   5.4274   5.5767  11.4103  11.6222  12.3769

     occupation numbers 
     1.0000   1.0000   1.0000   1.0000   1.0000   1.0000   1.0000   1.0000
     1.0000   1.0000   1.0000   1.0000   1.0000   1.0000   1.0000   1.0006
     1.0073   1.0831   0.5964   0.2315   0.0000   0.0000   0.0000

          k = 0.0278 0.1389 0.4167 (  2571 PWs)   bands (ev):

   -30.3680 -20.0084 -12.3609 -11.8795 -11.7183  -9.8311  -9.4546  -8.6971
    -5.0682  -5.0386  -5.0238   3.9540   4.1288   4.3915   4.4442   4.5711
     4.7630   5.1277   5.4020   5.5587  11.5648  11.7812  12.5445

     occupation numbers 
     1.0000   1.0000   1.0000   1.0000   1.0000   1.0000   1.0000   1.0000
     1.0000   1.0000   1.0000   1.0000   1.0000   1.0000   1.0000   1.0002
     1.0049   1.0828   0.6666   0.2669   0.0000   0.0000   0.0000

          k = 0.0278 0.1389 0.4722 (  2564 PWs)   bands (ev):

   -30.3677 -20.0073 -12.3910 -11.8794 -11.7178  -9.8351  -9.4546  -8.6421
    -5.0615  -5.0355  -5.0295   3.9597   4.0322   4.3764   4.4318   4.5424
     4.7500   5.1323   5.3871   5.5492  11.6513  11.8693  12.6861

     occupation numbers 
     1.0000   1.0000   1.0000   1.0000   1.0000   1.0000   1.0000   1.0000
     1.0000   1.0000   1.0000   1.0000   1.0000   1.0000   1.0000   1.0001
     1.0041   1.0823   0.7069   0.2866   0.0000   0.0000   0.0000

          k = 0.0278 0.1944 0.1944 (  2572 PWs)   bands (ev):

   -30.3698 -20.0161 -11.9986 -11.9946 -11.7216  -9.7885  -9.3417  -9.2513
    -5.0976  -5.0537  -5.0179   4.1001   4.4937   4.5456   4.5911   4.8026
     5.0938   5.1121   5.4487   5.6313  10.9526  11.1826  11.6194

     occupation numbers 
     1.0000   1.0000   1.0000   1.0000   1.0000   1.0000   1.0000   1.0000
     1.0000   1.0000   1.0000   1.0000   1.0000   1.0001   1.0003   1.0084
     1.0819   1.0833   0.5375   0.1436   0.0000   0.0000   0.0000

          k = 0.0278 0.1944 0.2500 (  2573 PWs)   bands (ev):

   -30.3691 -20.0132 -12.1140 -11.9972 -11.7204  -9.7824  -9.3110  -9.1135
    -5.1013  -5.0486  -5.0159   4.0058   4.4263   4.4813   4.5692   4.7424
     4.9505   5.1303   5.4121   5.5974  11.1184  11.4281  11.8531

     occupation numbers 
     1.0000   1.0000   1.0000   1.0000   1.0000   1.0000   1.0000   1.0000
     1.0000   1.0000   1.0000   1.0000   1.0000   1.0000   1.0002   1.0037
     1.0395   1.0826   0.6386   0.1949   0.0000   0.0000   0.0000

          k = 0.0278 0.1944 0.3056 (  2580 PWs)   bands (ev):

   -30.3684 -20.0102 -12.2191 -11.9978 -11.7192  -9.7829  -9.3095  -8.9502
    -5.1004  -5.0440  -5.0179   3.9241   4.3048   4.4492   4.5267   4.6770
     4.8415   5.1479   5.3841   5.5648  11.3072  11.6639  12.1252

     occupation numbers 
     1.0000   1.0000   1.0000   1.0000   1.0000   1.0000   1.0000   1.0000
     1.0000   1.0000   1.0000   1.0000   1.0000   1.0000   1.0001   1.0013
     1.0135   1.0795   0.7150   0.2545   0.0000   0.0000   0.0000

          k = 0.0278 0.1944 0.3611 (  2583 PWs)   bands (ev):

   -30.3678 -20.0077 -12.3037 -11.9983 -11.7181  -9.7859  -9.3108  -8.8078
    -5.0951  -5.0421  -5.0220   3.8638   4.1650   4.4154   4.4867   4.6192
     4.7832   5.1692   5.3537   5.5369  11.4963  11.8703  12.3676

     occupation numbers 
     1.0000   1.0000   1.0000   1.0000   1.0000   1.0000   1.0000   1.0000
     1.0000   1.0000   1.0000   1.0000   1.0000   1.0000   1.0000   1.0005
     1.0065   1.0722   0.7938   0.3136   0.0000   0.0000   0.0000

          k = 0.0278 0.1944 0.4167 (  2578 PWs)   bands (ev):

   -30.3674 -20.0058 -12.3627 -11.9987 -11.7173  -9.7891  -9.3121  -8.7038
    -5.0866  -5.0458  -5.0245   3.8313   4.0354   4.3890   4.4622   4.5791
     4.7520   5.1949   5.3213   5.5167  11.6542  12.0317  12.5266

     occupation numbers 
     1.0000   1.0000   1.0000   1.0000   1.0000   1.0000   1.0000   1.0000
     1.0000   1.0000   1.0000   1.0000   1.0000   1.0000   1.0000   1.0002
     1.0042   1.0572   0.8702   0.3605   0.0000   0.0000   0.0000

          k = 0.0278 0.1944 0.4722 (  2564 PWs)   bands (ev):

   -30.3671 -20.0048 -12.3929 -11.9989 -11.7168  -9.7910  -9.3128  -8.6490
    -5.0779  -5.0530  -5.0246   3.8268   3.9506   4.3752   4.4523   4.5580
     4.7379   5.2194   5.2940   5.5064  11.7459  12.1255  12.5995

     occupation numbers 
     1.0000   1.0000   1.0000   1.0000   1.0000   1.0000   1.0000   1.0000
     1.0000   1.0000   1.0000   1.0000   1.0000   1.0000   1.0000   1.0002
     1.0034   1.0361   0.9267   0.3855   0.0000   0.0000   0.0000

          k = 0.0278 0.2500 0.2500 (  2583 PWs)   bands (ev):

   -30.3684 -20.0102 -12.1167 -12.1134 -11.7192  -9.7699  -9.1681  -9.0903
    -5.1099  -5.0445  -5.0173   3.9002   4.3208   4.4644   4.5561   4.6864
     4.8887   5.0990   5.4000   5.5598  11.2589  11.7063  11.9802

     occupation numbers 
     1.0000   1.0000   1.0000   1.0000   1.0000   1.0000   1.0000   1.0000
     1.0000   1.0000   1.0000   1.0000   1.0000   1.0000   1.0001   1.0015
     1.0225   1.0825   0.6720   0.2646   0.0000   0.0000   0.0000

          k = 0.0278 0.2500 0.3056 (  2586 PWs)   bands (ev):

   -30.3677 -20.0073 -12.2207 -12.1162 -11.7180  -9.7645  -9.1412  -8.9549
    -5.1134  -5.0437  -5.0204   3.8054   4.2078   4.4410   4.5201   4.6278
     4.8230   5.0864   5.4088   5.5237  11.4254  11.9655  12.1501

     occupation numbers 
     1.0000   1.0000   1.0000   1.0000   1.0000   1.0000   1.0000   1.0000
     1.0000   1.0000   1.0000   1.0000   1.0000   1.0000   1.0001   1.0006
     1.0108   1.0808   0.6478   0.3437   0.0000   0.0000   0.0000

          k = 0.0278 0.2500 0.3611 (  2577 PWs)   bands (ev):

   -30.3671 -20.0048 -12.3056 -12.1173 -11.7169  -9.7624  -9.1420  -8.8149
    -5.1116  -5.0502  -5.0208   3.7312   4.0856   4.4116   4.4832   4.5784
     4.7903   5.0828   5.4161   5.4931  11.6017  12.1535  12.3287

     occupation numbers 
     1.0000   1.0000   1.0000   1.0000   1.0000   1.0000   1.0000   1.0000
     1.0000   1.0000   1.0000   1.0000   1.0000   1.0000   1.0000   1.0002
     1.0071   1.0802   0.6277   0.4189   0.0000   0.0000   0.0000

          k = 0.0278 0.2500 0.4167 (  2573 PWs)   bands (ev):

   -30.3667 -20.0028 -12.3648 -12.1180 -11.7161  -9.7619  -9.1442  -8.7115
    -5.1050  -5.0621  -5.0190   3.6827   3.9752   4.3866   4.4594   4.5473
     4.7761   5.0814   5.4188   5.4706  11.7605  12.2831  12.4373

     occupation numbers 
     1.0000   1.0000   1.0000   1.0000   1.0000   1.0000   1.0000   1.0000
     1.0000   1.0000   1.0000   1.0000   1.0000   1.0000   1.0000   1.0001
     1.0059   1.0800   0.6201   0.4779   0.0000   0.0000   0.0000

          k = 0.0278 0.2500 0.4722 (  2561 PWs)   bands (ev):

   -30.3665 -20.0018 -12.3951 -12.1185 -11.7157  -9.7619  -9.1456  -8.6569
    -5.0959  -5.0744  -5.0177   3.6608   3.9092   4.3733   4.4489   4.5329
     4.7706   5.0812   5.4199   5.4592  11.8610  12.3582  12.4676

     occupation numbers 
     1.0000   1.0000   1.0000   1.0000   1.0000   1.0000   1.0000   1.0000
     1.0000   1.0000   1.0000   1.0000   1.0000   1.0000   1.0000   1.0001
     1.0055   1.0799   0.6172   0.5087   0.0000   0.0000   0.0000

          k = 0.0278 0.3056 0.3056 (  2583 PWs)   bands (ev):

   -30.3671 -20.0044 -12.2233 -12.2212 -11.7168  -9.7538  -8.9954  -8.9401
    -5.1216  -5.0514  -5.0194   3.6961   4.1114   4.4281   4.4851   4.5744
     4.8000   5.0423   5.4538   5.4839  11.5650  12.1801  12.2895

     occupation numbers 
     1.0000   1.0000   1.0000   1.0000   1.0000   1.0000   1.0000   1.0000
     1.0000   1.0000   1.0000   1.0000   1.0000   1.0000   1.0000   1.0002
     1.0081   1.0701   0.5234   0.4429   0.0000   0.0000   0.0000

          k = 0.0278 0.3056 0.3611 (  2576 PWs)   bands (ev):

   -30.3665 -20.0018 -12.3075 -12.2236 -11.7158  -9.7474  -8.9765  -8.8213
    -5.1241  -5.0654  -5.0159   3.6076   4.0081   4.4064   4.4468   4.5268
     4.7999   5.0207   5.4500   5.4894  11.7164  12.2105  12.5334

     occupation numbers 
     1.0000   1.0000   1.0000   1.0000   1.0000   1.0000   1.0000   1.0000
     1.0000   1.0000   1.0000   1.0000   1.0000   1.0000   1.0000   1.0001
     1.0081   1.0632   0.5339   0.4284   0.0000   0.0000   0.0000

          k = 0.0278 0.3056 0.4167 (  2575 PWs)   bands (ev):

   -30.3660 -19.9999 -12.3669 -12.2247 -11.7150  -9.7436  -8.9786  -8.7191
    -5.1209  -5.0814  -5.0125   3.5471   3.9150   4.3819   4.4224   4.4965
     4.8145   5.0050   5.4256   5.5114  11.8646  12.2072  12.6732

     occupation numbers 
     1.0000   1.0000   1.0000   1.0000   1.0000   1.0000   1.0000   1.0000
     1.0000   1.0000   1.0000   1.0000   1.0000   1.0000   1.0000   1.0000
     1.0097   1.0578   0.6013   0.3733   0.0000   0.0000   0.0000

          k = 0.0278 0.3056 0.4722 (  2571 PWs)   bands (ev):

   -30.3658 -19.9989 -12.3973 -12.2253 -11.7146  -9.7419  -8.9803  -8.6648
    -5.1132  -5.0960  -5.0106   3.5169   3.8598   4.3681   4.4103   4.4834
     4.8278   4.9940   5.4127   5.5219  11.9809  12.1708  12.7639

     occupation numbers 
     1.0000   1.0000   1.0000   1.0000   1.0000   1.0000   1.0000   1.0000
     1.0000   1.0000   1.0000   1.0000   1.0000   1.0000   1.0000   1.0000
     1.0114   1.0540   0.6371   0.3479   0.0000   0.0000   0.0000

          k = 0.0278 0.3611 0.3611 (  2572 PWs)   bands (ev):

   -30.3659 -19.9992 -12.3098 -12.3087 -11.7148  -9.7373  -8.8464  -8.8149
    -5.1313  -5.0832  -5.0107   3.5080   3.9248   4.3942   4.3993   4.4791
     4.8222   4.9963   5.4133   5.5446  11.8277  12.1802  12.6752

     occupation numbers 
[...]

   -30.3634 -19.9897 -12.3613 -12.2222 -12.2063  -9.0218  -8.9109  -8.7084
    -5.2144  -5.2035  -5.1109   3.6953   3.9051   4.0905   4.1935   4.4822
     4.5493   5.3605   5.4261   5.5562  11.8818  11.9773  12.0048

     occupation numbers 
     1.0000   1.0000   1.0000   1.0000   1.0000   1.0000   1.0000   1.0000
     1.0000   1.0000   1.0000   1.0000   1.0000   1.0000   1.0000   1.0000
     1.0001   0.7766   0.6000   0.2720   0.0000   0.0000   0.0000

          k = 0.3056 0.3056 0.4722 (  2553 PWs)   bands (ev):

   -30.3632 -19.9887 -12.3916 -12.2223 -12.2053  -9.0192  -8.9090  -8.6549
    -5.2204  -5.2024  -5.1272   3.7334   3.8014   4.0745   4.1926   4.4824
     4.5510   5.3594   5.4411   5.5687  11.8710  11.9794  12.0364

     occupation numbers 
     1.0000   1.0000   1.0000   1.0000   1.0000   1.0000   1.0000   1.0000
     1.0000   1.0000   1.0000   1.0000   1.0000   1.0000   1.0000   1.0000
     1.0001   0.7794   0.5583   0.2468   0.0000   0.0000   0.0000

          k = 0.3056 0.3611 0.3611 (  2550 PWs)   bands (ev):

   -30.3633 -19.9891 -12.3047 -12.2970 -12.2127  -8.9832  -8.8229  -8.7903
    -5.2184  -5.2177  -5.1159   3.6841   3.9652   4.1270   4.1336   4.4265
     4.5323   5.4016   5.4301   5.5716  11.8311  11.9383  11.9474

     occupation numbers 
     1.0000   1.0000   1.0000   1.0000   1.0000   1.0000   1.0000   1.0000
     1.0000   1.0000   1.0000   1.0000   1.0000   1.0000   1.0000   1.0000
     1.0001   0.6676   0.5890   0.2412   0.0000   0.0000   0.0000

          k = 0.3056 0.3611 0.4167 (  2553 PWs)   bands (ev):

   -30.3628 -19.9873 -12.3601 -12.2999 -12.2115  -8.9721  -8.8063  -8.7057
    -5.2313  -5.2246  -5.1426   3.6945   3.8679   4.0913   4.1477   4.3872
     4.5346   5.4161   5.4602   5.6057  11.7734  11.9261  11.9366

     occupation numbers 
     1.0000   1.0000   1.0000   1.0000   1.0000   1.0000   1.0000   1.0000
     1.0000   1.0000   1.0000   1.0000   1.0000   1.0000   1.0000   1.0000
     1.0001   0.6277   0.5062   0.1813   0.0000   0.0000   0.0000

          k = 0.3056 0.3611 0.4722 (  2553 PWs)   bands (ev):

   -30.3626 -19.9864 -12.3904 -12.2996 -12.2108  -8.9684  -8.8041  -8.6527
    -5.2383  -5.2252  -5.1596   3.7114   3.7970   4.0735   4.1554   4.3737
     4.5367   5.4203   5.4779   5.6240  11.7438  11.9187  11.9351

     occupation numbers 
     1.0000   1.0000   1.0000   1.0000   1.0000   1.0000   1.0000   1.0000
     1.0000   1.0000   1.0000   1.0000   1.0000   1.0000   1.0000   1.0000
     1.0001   0.6159   0.4587   0.1538   0.0000   0.0000   0.0000

          k = 0.3056 0.4167 0.4167 (  2557 PWs)   bands (ev):

   -30.3624 -19.9856 -12.3606 -12.3576 -12.2101  -8.9596  -8.7131  -8.6978
    -5.2405  -5.2395  -5.1699   3.6843   3.8174   4.1067   4.1130   4.3266
     4.5358   5.4540   5.4774   5.6500  11.6789  11.8956  11.9032

     occupation numbers 
     1.0000   1.0000   1.0000   1.0000   1.0000   1.0000   1.0000   1.0000
     1.0000   1.0000   1.0000   1.0000   1.0000   1.0000   1.0000   1.0000
     1.0001   0.5229   0.4599   0.1199   0.0000   0.0000   0.0000

          k = 0.3056 0.4167 0.4722 (  2555 PWs)   bands (ev):

   -30.3622 -19.9847 -12.3894 -12.3586 -12.2092  -8.9551  -8.7047  -8.6511
    -5.2482  -5.2421  -5.1869   3.6729   3.7875   4.0902   4.1225   4.3015
     4.5374   5.4678   5.4914   5.6740  11.6274  11.8822  11.8879

     occupation numbers 
     1.0000   1.0000   1.0000   1.0000   1.0000   1.0000   1.0000   1.0000
     1.0000   1.0000   1.0000   1.0000   1.0000   1.0000   1.0000   1.0000
     1.0001   0.4855   0.4233   0.0938   0.0000   0.0000   0.0000

          k = 0.3056 0.4722 0.4722 (  2546 PWs)   bands (ev):

   -30.3619 -19.9838 -12.3891 -12.3888 -12.2083  -8.9502  -8.6514  -8.6495
    -5.2512  -5.2510  -5.2036   3.6448   3.7802   4.1033   4.1045   4.2712
     4.5382   5.4936   5.4972   5.7022  11.5632  11.8658  11.8670

     occupation numbers 
     1.0000   1.0000   1.0000   1.0000   1.0000   1.0000   1.0000   1.0000
     1.0000   1.0000   1.0000   1.0000   1.0000   1.0000   1.0000   1.0000
     1.0001   0.4176   0.4086   0.0691   0.0000   0.0000   0.0000

          k = 0.3611 0.3611 0.3611 (  2542 PWs)   bands (ev):

   -30.3627 -19.9868 -12.3070 -12.2944 -12.2944  -8.8697  -8.7846  -8.7846
    -5.2373  -5.2373  -5.1499   3.6908   3.9516   4.0907   4.0907   4.4292
     4.4292   5.4754   5.4754   5.5991  11.7681  11.8561  11.8561

     occupation numbers 
     1.0000   1.0000   1.0000   1.0000   1.0000   1.0000   1.0000   1.0000
     1.0000   1.0000   1.0000   1.0000   1.0000   1.0000   1.0000   1.0000
     1.0000   0.4653   0.4653   0.1921   0.0000   0.0000   0.0000

          k = 0.3611 0.3611 0.4167 (  2550 PWs)   bands (ev):

   -30.3622 -19.9851 -12.3582 -12.3016 -12.2924  -8.8437  -8.7803  -8.7008
    -5.2519  -5.2470  -5.1792   3.6849   3.8947   4.0621   4.1023   4.3732
     4.4308   5.4953   5.5276   5.6282  11.7059  11.7953  11.8132

     occupation numbers 
     1.0000   1.0000   1.0000   1.0000   1.0000   1.0000   1.0000   1.0000
     1.0000   1.0000   1.0000   1.0000   1.0000   1.0000   1.0000   1.0000
     1.0000   0.4135   0.3348   0.1479   0.0000   0.0000   0.0000

          k = 0.3611 0.3611 0.4722 (  2549 PWs)   bands (ev):

   -30.3620 -19.9842 -12.3884 -12.3014 -12.2914  -8.8386  -8.7780  -8.6484
    -5.2597  -5.2490  -5.1977   3.6750   3.8584   4.0479   4.1146   4.3511
     4.4321   5.5029   5.5546   5.6463  11.6707  11.7651  11.7941

     occupation numbers 
     1.0000   1.0000   1.0000   1.0000   1.0000   1.0000   1.0000   1.0000
     1.0000   1.0000   1.0000   1.0000   1.0000   1.0000   1.0000   1.0000
     1.0000   0.3941   0.2754   0.1244   0.0000   0.0000   0.0000

          k = 0.3611 0.4167 0.4167 (  2543 PWs)   bands (ev):

   -30.3618 -19.9834 -12.3584 -12.3548 -12.2950  -8.8121  -8.7061  -8.6913
    -5.2645  -5.2624  -5.2098   3.6554   3.8947   4.0640   4.0737   4.3287
     4.4080   5.5484   5.5637   5.6606  11.6236  11.7258  11.7372

     occupation numbers 
     1.0000   1.0000   1.0000   1.0000   1.0000   1.0000   1.0000   1.0000
     1.0000   1.0000   1.0000   1.0000   1.0000   1.0000   1.0000   1.0000
     1.0000   0.2884   0.2568   0.1077   0.0000   0.0000   0.0000

          k = 0.3611 0.4167 0.4722 (  2534 PWs)   bands (ev):

   -30.3616 -19.9825 -12.3869 -12.3558 -12.2942  -8.8066  -8.6972  -8.6451
    -5.2724  -5.2666  -5.2288   3.6315   3.8867   4.0525   4.0833   4.3020
     4.4059   5.5645   5.5888   5.6827  11.5711  11.6899  11.7083

     occupation numbers 
     1.0000   1.0000   1.0000   1.0000   1.0000   1.0000   1.0000   1.0000
     1.0000   1.0000   1.0000   1.0000   1.0000   1.0000   1.0000   1.0000
     1.0000   0.2553   0.2097   0.0856   0.0000   0.0000   0.0000

          k = 0.3611 0.4722 0.4722 (  2530 PWs)   bands (ev):

   -30.3613 -19.9816 -12.3863 -12.3859 -12.2933  -8.8009  -8.6446  -8.6426
    -5.2765  -5.2757  -5.2481   3.6018   3.8914   4.0653   4.0670   4.2729
     4.4018   5.5965   5.5998   5.7092  11.5057  11.6633  11.6654

     occupation numbers 
     1.0000   1.0000   1.0000   1.0000   1.0000   1.0000   1.0000   1.0000
     1.0000   1.0000   1.0000   1.0000   1.0000   1.0000   1.0000   1.0000
     1.0000   0.1963   0.1910   0.0639   0.0000   0.0000   0.0000

          k = 0.4167 0.4167 0.4167 (  2527 PWs)   bands (ev):

   -30.3614 -19.9817 -12.3583 -12.3527 -12.3527  -8.7200  -8.6864  -8.6864
    -5.2795  -5.2795  -5.2417   3.6149   3.9428   4.0476   4.0476   4.3304
     4.3304   5.6170   5.6170   5.6771  11.5692  11.6190  11.6190

     occupation numbers 
     1.0000   1.0000   1.0000   1.0000   1.0000   1.0000   1.0000   1.0000
     1.0000   1.0000   1.0000   1.0000   1.0000   1.0000   1.0000   1.0000
     1.0000   0.1639   0.1639   0.0909   0.0000   0.0000   0.0000

          k = 0.4167 0.4167 0.4722 (  2531 PWs)   bands (ev):

   -30.3611 -19.9809 -12.3850 -12.3555 -12.3516  -8.7071  -8.6838  -8.6407
    -5.2886  -5.2847  -5.2614   3.5864   3.9529   4.0343   4.0550   4.2951
     4.3311   5.6351   5.6526   5.6951  11.5204  11.5575  11.5839

     occupation numbers 
     1.0000   1.0000   1.0000   1.0000   1.0000   1.0000   1.0000   1.0000
     1.0000   1.0000   1.0000   1.0000   1.0000   1.0000   1.0000   1.0000
     1.0000   0.1385   0.1169   0.0748   0.0000   0.0000   0.0000

          k = 0.4167 0.4722 0.4722 (  2532 PWs)   bands (ev):

   -30.3609 -19.9800 -12.3842 -12.3837 -12.3524  -8.6931  -8.6394  -8.6374
    -5.2949  -5.2941  -5.2810   3.5568   3.9735   4.0391   4.0413   4.2741
     4.3147   5.6716   5.6738   5.7145  11.4634  11.5178  11.5204

     occupation numbers 
     1.0000   1.0000   1.0000   1.0000   1.0000   1.0000   1.0000   1.0000
     1.0000   1.0000   1.0000   1.0000   1.0000   1.0000   1.0000   1.0000
     1.0000   0.0963   0.0940   0.0601   0.0000   0.0000   0.0000

          k = 0.4722 0.4722 0.4722 (  2527 PWs)   bands (ev):

   -30.3607 -19.9791 -12.3833 -12.3826 -12.3826  -8.6386  -8.6347  -8.6347
    -5.3038  -5.3038  -5.2993   3.5277   4.0143   4.0288   4.0288   4.2746
     4.2746   5.7114   5.7114   5.7194  11.4383  11.4445  11.4445

     occupation numbers 
     1.0000   1.0000   1.0000   1.0000   1.0000   1.0000   1.0000   1.0000
     1.0000   1.0000   1.0000   1.0000   1.0000   1.0000   1.0000   1.0000
     1.0000   0.0623   0.0623   0.0568   0.0000   0.0000   0.0000

     the Fermi energy is     5.5003 ev

!    total energy              =    -628.28676977 Ry
     estimated scf accuracy    <       0.00000001 Ry
     smearing contrib. (-TS)   =      -0.00190872 Ry
     internal energy E=F+TS    =    -628.28486105 Ry

     The total energy is F=E-TS. E is the sum of the following terms:
     one-electron contribution =     -64.48378146 Ry
     hartree contribution      =      52.32537973 Ry
     xc contribution           =     -53.70767039 Ry
     ewald contribution        =    -166.45952522 Ry
     one-center paw contrib.   =    -395.95926371 Ry
      -> PAW hartree energy AE =      28.32942696 Ry
      -> PAW hartree energy PS =     -28.21283779 Ry
      -> PAW xc energy AE      =    -387.73033216 Ry
      -> PAW xc energy PS      =      19.01811639 Ry
      -> total E_H with PAW    =      52.44196890 Ry
      -> total E_XC with PAW   =    -422.41988616 Ry

     convergence has been achieved in  11 iterations

     Forces acting on atoms (cartesian axes, Ry/au):

     atom    1 type  1   force =     0.00000000    0.00000000    0.00000000
     atom    2 type  2   force =     0.00000000    0.00000000    0.00000000
     atom    3 type  3   force =     0.00000000    0.00000000    0.00000000
     atom    4 type  3   force =     0.00000000    0.00000000    0.00000000
     atom    5 type  3   force =     0.00000000    0.00000000    0.00000000
     The non-local contrib.  to forces
     atom    1 type  1   force =     0.00000000    0.00000000    0.00000000
     atom    2 type  2   force =     0.00000000    0.00000000    0.00000000
     atom    3 type  3   force =     0.00000000    0.00000000    0.00000000
     atom    4 type  3   force =     0.00000000    0.00000000    0.00000000
     atom    5 type  3   force =     0.00000000    0.00000000    0.00000000
     The ionic contribution  to forces
     atom    1 type  1   force =    -0.00000000   -0.00000000   -0.00000000
     atom    2 type  2   force =     0.00000000    0.00000000    0.00000000
     atom    3 type  3   force =     0.00000000    0.00000000   -0.00000000
     atom    4 type  3   force =     0.00000000   -0.00000000    0.00000000
     atom    5 type  3   force =    -0.00000000    0.00000000    0.00000000
     The local contribution  to forces
     atom    1 type  1   force =     0.00000000    0.00000000   -0.00000000
     atom    2 type  2   force =     0.00000000    0.00000000    0.00000000
     atom    3 type  3   force =     0.00000000    0.00000000    0.00000000
     atom    4 type  3   force =     0.00000000    0.00000000    0.00000000
     atom    5 type  3   force =     0.00000000    0.00000000    0.00000000
     The core correction contribution to forces
     atom    1 type  1   force =     0.00000000    0.00000000    0.00000000
     atom    2 type  2   force =     0.00000000   -0.00000000   -0.00000000
     atom    3 type  3   force =     0.00000000    0.00000000    0.00000000
     atom    4 type  3   force =     0.00000000    0.00000000    0.00000000
     atom    5 type  3   force =     0.00000000    0.00000000   -0.00000000
     The Hubbard contrib.    to forces
     atom    1 type  1   force =     0.00000000    0.00000000    0.00000000
     atom    2 type  2   force =     0.00000000    0.00000000    0.00000000
     atom    3 type  3   force =     0.00000000    0.00000000    0.00000000
     atom    4 type  3   force =     0.00000000    0.00000000    0.00000000
     atom    5 type  3   force =     0.00000000    0.00000000    0.00000000
     The SCF correction term to forces
     atom    1 type  1   force =    -0.00000000   -0.00000000    0.00000000
     atom    2 type  2   force =     0.00000000    0.00000000   -0.00000000
     atom    3 type  3   force =     0.00000000    0.00000000   -0.00000000
     atom    4 type  3   force =    -0.00000000   -0.00000000   -0.00000000
     atom    5 type  3   force =     0.00000000    0.00000000   -0.00000000

     Total force =     0.000000     Total SCF correction =     0.000000


     Computing stress (Cartesian axis) and pressure

          total   stress  (Ry/bohr**3)                   (kbar)     P=      -65.65
  -0.00044626   0.00000000   0.00000000          -65.65        0.00        0.00
   0.00000000  -0.00044626   0.00000000            0.00      -65.65        0.00
   0.00000000   0.00000000  -0.00044626            0.00        0.00      -65.65

     kinetic stress (kbar)  14362.05      0.00      0.00
                                0.00  14362.05      0.00
                                0.00      0.00  14362.05

     local   stress (kbar)  -6185.39     -0.00      0.00
                               -0.00  -6185.39      0.00
                                0.00      0.00  -6185.39

     nonloc. stress (kbar)   4519.41      0.00      0.00
                                0.00   4519.41      0.00
                                0.00      0.00   4519.41

     hartree stress (kbar)   4272.93      0.00     -0.00
                                0.00   4272.93     -0.00
                               -0.00     -0.00   4272.93

     exc-cor stress (kbar)    451.50     -0.00      0.00
                               -0.00    451.50      0.00
                                0.00      0.00    451.50

     corecor stress (kbar)  -3892.95     -0.00      0.00
                               -0.00  -3892.95     -0.00
                                0.00     -0.00  -3892.95

     ewald   stress (kbar) -13593.20     -0.00     -0.00
                               -0.00 -13593.20     -0.00
                               -0.00     -0.00 -13593.20

     hubbard stress (kbar)      0.00      0.00      0.00
                                0.00      0.00      0.00
                                0.00      0.00      0.00

     DFT-D   stress (kbar)      0.00      0.00      0.00
                                0.00      0.00      0.00
                                0.00      0.00      0.00

     XDM     stress (kbar)      0.00      0.00      0.00
                                0.00      0.00      0.00
                                0.00      0.00      0.00

     dft-nl  stress (kbar)      0.00      0.00      0.00
                                0.00      0.00      0.00
                                0.00      0.00      0.00

     TS-vdW  stress (kbar)      0.00      0.00      0.00
                                0.00      0.00      0.00
                                0.00      0.00      0.00

     MDB     stress (kbar)      0.00      0.00      0.00
                                0.00      0.00      0.00
                                0.00      0.00      0.00

     3D-RISM stress (kbar)      0.00      0.00      0.00
                                0.00      0.00      0.00
                                0.00      0.00      0.00


     Writing all to output data dir ./out/BCO.save/ :
     XML data file, charge density, pseudopotentials, collected wavefunctions

     init_run     :      1.33s CPU      1.46s WALL (       1 calls)
     electrons    :     42.11s CPU     44.32s WALL (       1 calls)
     forces       :      0.47s CPU      0.48s WALL (       1 calls)
     stress       :      1.40s CPU      1.40s WALL (       1 calls)

     Called by init_run:
     wfcinit      :      0.78s CPU      0.82s WALL (       1 calls)
     wfcinit:atom :      0.01s CPU      0.01s WALL (      83 calls)
     wfcinit:wfcr :      0.73s CPU      0.77s WALL (      83 calls)
     potinit      :      0.24s CPU      0.25s WALL (       1 calls)
     hinit0       :      0.23s CPU      0.24s WALL (       1 calls)

     Called by electrons:
     c_bands      :     36.02s CPU     38.07s WALL (      11 calls)
     sum_band     :      4.73s CPU      4.84s WALL (      11 calls)
     v_of_rho     :      0.18s CPU      0.19s WALL (      12 calls)
     v_h          :      0.02s CPU      0.02s WALL (      12 calls)
     v_xc         :      0.18s CPU      0.19s WALL (      14 calls)
     newd         :      0.59s CPU      0.61s WALL (      12 calls)
     PAW_pot      :      0.62s CPU      0.65s WALL (      12 calls)
     mix_rho      :      0.01s CPU      0.01s WALL (      11 calls)

     Called by c_bands:
     init_us_2    :      0.30s CPU      0.31s WALL (    2075 calls)
     init_us_2:cp :      0.30s CPU      0.31s WALL (    2075 calls)
     cegterg      :     30.64s CPU     32.60s WALL (     913 calls)

     Called by sum_band:
     sum_band:wei :      0.05s CPU      0.05s WALL (      11 calls)
     sum_band:loo :      4.04s CPU      4.14s WALL (      11 calls)
     sum_band:buf :      0.02s CPU      0.03s WALL (     913 calls)
     sum_band:ini :      0.12s CPU      0.12s WALL (     913 calls)
     sum_band:cal :      1.07s CPU      1.09s WALL (     913 calls)
     sum_band:bec :      0.03s CPU      0.03s WALL (     913 calls)
     addusdens    :      0.53s CPU      0.54s WALL (      11 calls)
                                        0.00s GPU  (      11 calls)
     addusd:skk   :      0.00s CPU      0.00s WALL (      33 calls)
                                        0.00s GPU  (      33 calls)

     Called by *egterg:
     cdiaghg      :      3.35s CPU      3.56s WALL (    4751 calls)
     cegterg:over :      3.44s CPU      3.65s WALL (    3838 calls)
     cegterg:upda :      0.85s CPU      0.90s WALL (    3838 calls)
     cegterg:last :      2.04s CPU      2.09s WALL (    2065 calls)
     h_psi        :     16.71s CPU     17.97s WALL (    4834 calls)
     s_psi        :      1.76s CPU      1.88s WALL (    4834 calls)
     g_psi        :      0.11s CPU      0.12s WALL (    3838 calls)

     Called by h_psi:
     h_psi:calbec :      2.64s CPU      2.85s WALL (    4834 calls)
     vloc_psi     :     12.23s CPU     13.15s WALL (    4834 calls)
     add_vuspsi   :      1.77s CPU      1.90s WALL (    4834 calls)

     General routines
     calbec       :      4.16s CPU      4.41s WALL (    6162 calls)
     fft          :      0.23s CPU      0.23s WALL (     179 calls)
     ffts         :      0.17s CPU      0.17s WALL (      23 calls)
     fftw         :     12.13s CPU     12.99s WALL (  139907 calls)
     interpolate  :      0.18s CPU      0.18s WALL (      12 calls)

     Parallel routines

     PAW routines
     PAW_pot      :      0.62s CPU      0.65s WALL (      12 calls)
     PAW_symme    :      0.03s CPU      0.03s WALL (      23 calls)

     PWSCF        :     46.16s CPU     48.72s WALL


   This run was terminated on:  19: 6: 3   7Apr2025            

=------------------------------------------------------------------------------=
   JOB DONE.
=------------------------------------------------------------------------------=
