
     Program PWSCF v.7.3 starts on  7Apr2025 at 18:40:42 

     This program is part of the open-source Quantum ESPRESSO suite
     for quantum simulation of materials; please cite
         "P. Giannozzi et al., J. Phys.:Condens. Matter 21 395502 (2009);
         "P. Giannozzi et al., J. Phys.:Condens. Matter 29 465901 (2017);
         "P. Giannozzi et al., J. Chem. Phys. 152 154105 (2020);
          URL http://www.quantum-espresso.org", 
     in publications or presentations arising from this work. More details at
     http://www.quantum-espresso.org/quote

     Parallel version (MPI), running on    20 processors

     MPI processes distributed on     1 nodes
     26763 MiB available memory on the printing compute node when the environment starts

     Waiting for input...
     Reading input from standard input

     Current dimensions of program PWSCF are:
     Max number of different atomic species (ntypx) = 10
     Max number of k-points (npk) = 120000
     Max angular momentum in pseudopotentials (lmaxx) =  4
     file Ba.pbesol-spn-kjpaw_psl.1.0.0.UPF: wavefunction(s)  5S 6S renormalized
     file O.pbesol-n-kjpaw_psl.0.1.UPF: wavefunction(s)  2P renormalized
     Message from routine setup:
     using ibrav=0 with symmetry is DISCOURAGED, use correct ibrav instead

     K-points division:     npool     =       2
     R & G space division:  proc/nbgrp/npool/nimage =      10
     Subspace diagonalization in iterative solution of the eigenvalue problem:
     a serial algorithm will be used


     Parallelization info
     --------------------
     sticks:   dense  smooth     PW     G-vecs:    dense   smooth      PW
     Min         169      67     21                 5251     1329     229
     Max         170      68     22                 5254     1334     232
     Sum        1693     673    213                52515    13301    2301

     Using Slab Decomposition



     bravais-lattice index     =            0
     lattice parameter (alat)  =       8.4365  a.u.
     unit-cell volume          =     600.4730 (a.u.)^3
     number of atoms/cell      =            5
     number of atomic types    =            3
     number of electrons       =        38.00
     number of Kohn-Sham states=           23
     kinetic-energy cutoff     =      30.0000  Ry
     charge density cutoff     =     300.0000  Ry
     scf convergence threshold =      1.0E-07
     mixing beta               =       0.4000
     number of iterations used =            8  plain     mixing
     Exchange-correlation= SLA  PW   PSX  PSC
                           (   1   4  10   8   0   0   0)

     celldm(1)=   8.436542  celldm(2)=   0.000000  celldm(3)=   0.000000
     celldm(4)=   0.000000  celldm(5)=   0.000000  celldm(6)=   0.000000

     crystal axes: (cart. coord. in units of alat)
               a(1) = (   1.000000   0.000000   0.000000 )  
               a(2) = (   0.000000   1.000000   0.000000 )  
               a(3) = (   0.000000   0.000000   1.000000 )  

     reciprocal axes: (cart. coord. in units 2 pi/alat)
               b(1) = (  1.000000  0.000000  0.000000 )  
               b(2) = (  0.000000  1.000000  0.000000 )  
               b(3) = (  0.000000  0.000000  1.000000 )  


     PseudoPot. # 1 for Ba read from file:
     ./pseudo/Ba.pbesol-spn-kjpaw_psl.1.0.0.UPF
     MD5 check sum: f28c4a63d325c1a0d00fd3a4f19b8d73
     Pseudo is Projector augmented-wave + core cor, Zval = 10.0
     Generated using "atomic" code by A. Dal Corso  v.6.0 svn rev. 13079
     Shape of augmentation charge: PSQ
     Using radial grid of 1251 points,  7 beta functions with: 
                l(1) =   0
                l(2) =   0
                l(3) =   0
                l(4) =   1
                l(5) =   1
                l(6) =   2
                l(7) =   2
     Q(r) pseudized with 0 coefficients 


     PseudoPot. # 2 for Ca read from file:
     ./pseudo/ca_pbesol_v1.uspp.F.UPF
     MD5 check sum: 0533207b58cddeaa036efa5b63902087
     Pseudo is Ultrasoft + core correction, Zval = 10.0
     Generated by new atomic code, or converted to UPF format
     Using radial grid of  845 points,  6 beta functions with: 
                l(1) =   0
                l(2) =   0
                l(3) =   1
                l(4) =   1
                l(5) =   2
                l(6) =   2
     Q(r) pseudized with  8 coefficients,  rinner =    1.500   1.500   1.500
                                                       1.500   1.500

     PseudoPot. # 3 for O  read from file:
     ./pseudo/O.pbesol-n-kjpaw_psl.0.1.UPF
     MD5 check sum: 81d73d1479e654e5638b0319f0d6c2c7
     Pseudo is Projector augmented-wave + core cor, Zval =  6.0
     Generated using "atomic" code by A. Dal Corso  v.6.0 svn rev. 13079
     Shape of augmentation charge: BESSEL
     Using radial grid of 1095 points,  4 beta functions with: 
                l(1) =   0
                l(2) =   0
                l(3) =   1
                l(4) =   1
     Q(r) pseudized with 0 coefficients 


     atomic species   valence    mass     pseudopotential
     Ba               10.00   137.32700     Ba( 1.00)
     Ca               10.00    40.07800     Ca( 1.00)
     O                 6.00    15.99940     O ( 1.00)

     48 Sym. Ops., with inversion, found


                                    s                        frac. trans.

      isym =  1     identity                                     

 cryst.   s( 1) = (     1          0          0      )
                  (     0          1          0      )
                  (     0          0          1      )

 cart.    s( 1) = (  1.0000000  0.0000000  0.0000000 )
                  (  0.0000000  1.0000000  0.0000000 )
                  (  0.0000000  0.0000000  1.0000000 )


      isym =  2     180 deg rotation - cart. axis [0,0,1]        

 cryst.   s( 2) = (    -1          0          0      )
                  (     0         -1          0      )
                  (     0          0          1      )

 cart.    s( 2) = ( -1.0000000  0.0000000  0.0000000 )
                  (  0.0000000 -1.0000000  0.0000000 )
                  (  0.0000000  0.0000000  1.0000000 )


      isym =  3     180 deg rotation - cart. axis [0,1,0]        

 cryst.   s( 3) = (    -1          0          0      )
                  (     0          1          0      )
                  (     0          0         -1      )

 cart.    s( 3) = ( -1.0000000  0.0000000  0.0000000 )
                  (  0.0000000  1.0000000  0.0000000 )
                  (  0.0000000  0.0000000 -1.0000000 )


      isym =  4     180 deg rotation - cart. axis [1,0,0]        

 cryst.   s( 4) = (     1          0          0      )
                  (     0         -1          0      )
                  (     0          0         -1      )

 cart.    s( 4) = (  1.0000000  0.0000000  0.0000000 )
                  (  0.0000000 -1.0000000  0.0000000 )
                  (  0.0000000  0.0000000 -1.0000000 )


      isym =  5     180 deg rotation - cart. axis [1,1,0]        

 cryst.   s( 5) = (     0          1          0      )
                  (     1          0          0      )
                  (     0          0         -1      )

 cart.    s( 5) = (  0.0000000  1.0000000  0.0000000 )
                  (  1.0000000  0.0000000  0.0000000 )
                  (  0.0000000  0.0000000 -1.0000000 )


      isym =  6     180 deg rotation - cart. axis [1,-1,0]       

 cryst.   s( 6) = (     0         -1          0      )
                  (    -1          0          0      )
                  (     0          0         -1      )

 cart.    s( 6) = (  0.0000000 -1.0000000  0.0000000 )
                  ( -1.0000000  0.0000000  0.0000000 )
                  (  0.0000000  0.0000000 -1.0000000 )


      isym =  7      90 deg rotation - cart. axis [0,0,-1]       

 cryst.   s( 7) = (     0         -1          0      )
                  (     1          0          0      )
                  (     0          0          1      )

 cart.    s( 7) = (  0.0000000  1.0000000  0.0000000 )
                  ( -1.0000000  0.0000000  0.0000000 )
                  (  0.0000000  0.0000000  1.0000000 )


      isym =  8      90 deg rotation - cart. axis [0,0,1]        

 cryst.   s( 8) = (     0          1          0      )
                  (    -1          0          0      )
                  (     0          0          1      )

 cart.    s( 8) = (  0.0000000 -1.0000000  0.0000000 )
                  (  1.0000000  0.0000000  0.0000000 )
                  (  0.0000000  0.0000000  1.0000000 )


      isym =  9     180 deg rotation - cart. axis [1,0,1]        

 cryst.   s( 9) = (     0          0          1      )
                  (     0         -1          0      )
                  (     1          0          0      )

 cart.    s( 9) = (  0.0000000  0.0000000  1.0000000 )
                  (  0.0000000 -1.0000000  0.0000000 )
                  (  1.0000000  0.0000000  0.0000000 )


      isym = 10     180 deg rotation - cart. axis [-1,0,1]       

 cryst.   s(10) = (     0          0         -1      )
                  (     0         -1          0      )
                  (    -1          0          0      )

 cart.    s(10) = (  0.0000000  0.0000000 -1.0000000 )
                  (  0.0000000 -1.0000000  0.0000000 )
                  ( -1.0000000  0.0000000  0.0000000 )


      isym = 11      90 deg rotation - cart. axis [0,1,0]        

 cryst.   s(11) = (     0          0         -1      )
                  (     0          1          0      )
                  (     1          0          0      )

 cart.    s(11) = (  0.0000000  0.0000000  1.0000000 )
                  (  0.0000000  1.0000000  0.0000000 )
                  ( -1.0000000  0.0000000  0.0000000 )


      isym = 12      90 deg rotation - cart. axis [0,-1,0]       

 cryst.   s(12) = (     0          0          1      )
                  (     0          1          0      )
                  (    -1          0          0      )

 cart.    s(12) = (  0.0000000  0.0000000 -1.0000000 )
                  (  0.0000000  1.0000000  0.0000000 )
                  (  1.0000000  0.0000000  0.0000000 )


      isym = 13     180 deg rotation - cart. axis [0,1,1]        

 cryst.   s(13) = (    -1          0          0      )
                  (     0          0          1      )
                  (     0          1          0      )

 cart.    s(13) = ( -1.0000000  0.0000000  0.0000000 )
                  (  0.0000000  0.0000000  1.0000000 )
                  (  0.0000000  1.0000000  0.0000000 )


      isym = 14     180 deg rotation - cart. axis [0,1,-1]       

 cryst.   s(14) = (    -1          0          0      )
                  (     0          0         -1      )
                  (     0         -1          0      )

 cart.    s(14) = ( -1.0000000  0.0000000  0.0000000 )
                  (  0.0000000  0.0000000 -1.0000000 )
                  (  0.0000000 -1.0000000  0.0000000 )


      isym = 15      90 deg rotation - cart. axis [-1,0,0]       

 cryst.   s(15) = (     1          0          0      )
                  (     0          0         -1      )
                  (     0          1          0      )

 cart.    s(15) = (  1.0000000  0.0000000  0.0000000 )
                  (  0.0000000  0.0000000  1.0000000 )
                  (  0.0000000 -1.0000000  0.0000000 )


      isym = 16      90 deg rotation - cart. axis [1,0,0]        

 cryst.   s(16) = (     1          0          0      )
                  (     0          0          1      )
                  (     0         -1          0      )

 cart.    s(16) = (  1.0000000  0.0000000  0.0000000 )
                  (  0.0000000  0.0000000 -1.0000000 )
                  (  0.0000000  1.0000000  0.0000000 )


      isym = 17     120 deg rotation - cart. axis [-1,-1,-1]     

 cryst.   s(17) = (     0          0          1      )
                  (     1          0          0      )
                  (     0          1          0      )

 cart.    s(17) = (  0.0000000  1.0000000  0.0000000 )
                  (  0.0000000  0.0000000  1.0000000 )
                  (  1.0000000  0.0000000  0.0000000 )


      isym = 18     120 deg rotation - cart. axis [-1,1,1]       

 cryst.   s(18) = (     0          0         -1      )
                  (    -1          0          0      )
                  (     0          1          0      )

 cart.    s(18) = (  0.0000000 -1.0000000  0.0000000 )
                  (  0.0000000  0.0000000  1.0000000 )
                  ( -1.0000000  0.0000000  0.0000000 )


      isym = 19     120 deg rotation - cart. axis [1,1,-1]       

 cryst.   s(19) = (     0          0         -1      )
                  (     1          0          0      )
                  (     0         -1          0      )

 cart.    s(19) = (  0.0000000  1.0000000  0.0000000 )
                  (  0.0000000  0.0000000 -1.0000000 )
                  ( -1.0000000  0.0000000  0.0000000 )


      isym = 20     120 deg rotation - cart. axis [1,-1,1]       

 cryst.   s(20) = (     0          0          1      )
                  (    -1          0          0      )
                  (     0         -1          0      )

 cart.    s(20) = (  0.0000000 -1.0000000  0.0000000 )
                  (  0.0000000  0.0000000 -1.0000000 )
                  (  1.0000000  0.0000000  0.0000000 )


      isym = 21     120 deg rotation - cart. axis [1,1,1]        

 cryst.   s(21) = (     0          1          0      )
                  (     0          0          1      )
                  (     1          0          0      )

 cart.    s(21) = (  0.0000000  0.0000000  1.0000000 )
                  (  1.0000000  0.0000000  0.0000000 )
                  (  0.0000000  1.0000000  0.0000000 )


      isym = 22     120 deg rotation - cart. axis [-1,1,-1]      

 cryst.   s(22) = (     0         -1          0      )
                  (     0          0         -1      )
                  (     1          0          0      )

 cart.    s(22) = (  0.0000000  0.0000000  1.0000000 )
                  ( -1.0000000  0.0000000  0.0000000 )
                  (  0.0000000 -1.0000000  0.0000000 )


      isym = 23     120 deg rotation - cart. axis [1,-1,-1]      

 cryst.   s(23) = (     0         -1          0      )
                  (     0          0          1      )
                  (    -1          0          0      )

 cart.    s(23) = (  0.0000000  0.0000000 -1.0000000 )
                  ( -1.0000000  0.0000000  0.0000000 )
                  (  0.0000000  1.0000000  0.0000000 )


      isym = 24     120 deg rotation - cart. axis [-1,-1,1]      

 cryst.   s(24) = (     0          1          0      )
                  (     0          0         -1      )
                  (    -1          0          0      )

 cart.    s(24) = (  0.0000000  0.0000000 -1.0000000 )
                  (  1.0000000  0.0000000  0.0000000 )
                  (  0.0000000 -1.0000000  0.0000000 )


      isym = 25     inversion                                    

 cryst.   s(25) = (    -1          0          0      )
                  (     0         -1          0      )
                  (     0          0         -1      )

 cart.    s(25) = ( -1.0000000  0.0000000  0.0000000 )
                  (  0.0000000 -1.0000000  0.0000000 )
                  (  0.0000000  0.0000000 -1.0000000 )


      isym = 26     inv. 180 deg rotation - cart. axis [0,0,1]   

 cryst.   s(26) = (     1          0          0      )
                  (     0          1          0      )
                  (     0          0         -1      )

 cart.    s(26) = (  1.0000000  0.0000000  0.0000000 )
                  (  0.0000000  1.0000000  0.0000000 )
                  (  0.0000000  0.0000000 -1.0000000 )


      isym = 27     inv. 180 deg rotation - cart. axis [0,1,0]   

 cryst.   s(27) = (     1          0          0      )
                  (     0         -1          0      )
                  (     0          0          1      )

 cart.    s(27) = (  1.0000000  0.0000000  0.0000000 )
                  (  0.0000000 -1.0000000  0.0000000 )
                  (  0.0000000  0.0000000  1.0000000 )


      isym = 28     inv. 180 deg rotation - cart. axis [1,0,0]   

 cryst.   s(28) = (    -1          0          0      )
                  (     0          1          0      )
                  (     0          0          1      )

 cart.    s(28) = ( -1.0000000  0.0000000  0.0000000 )
                  (  0.0000000  1.0000000  0.0000000 )
                  (  0.0000000  0.0000000  1.0000000 )


      isym = 29     inv. 180 deg rotation - cart. axis [1,1,0]   

 cryst.   s(29) = (     0         -1          0      )
                  (    -1          0          0      )
                  (     0          0          1      )

 cart.    s(29) = (  0.0000000 -1.0000000  0.0000000 )
                  ( -1.0000000  0.0000000  0.0000000 )
                  (  0.0000000  0.0000000  1.0000000 )


      isym = 30     inv. 180 deg rotation - cart. axis [1,-1,0]  

 cryst.   s(30) = (     0          1          0      )
                  (     1          0          0      )
                  (     0          0          1      )

 cart.    s(30) = (  0.0000000  1.0000000  0.0000000 )
                  (  1.0000000  0.0000000  0.0000000 )
                  (  0.0000000  0.0000000  1.0000000 )


      isym = 31     inv.  90 deg rotation - cart. axis [0,0,-1]  

 cryst.   s(31) = (     0          1          0      )
                  (    -1          0          0      )
                  (     0          0         -1      )

 cart.    s(31) = (  0.0000000 -1.0000000  0.0000000 )
                  (  1.0000000  0.0000000  0.0000000 )
                  (  0.0000000  0.0000000 -1.0000000 )


      isym = 32     inv.  90 deg rotation - cart. axis [0,0,1]   

 cryst.   s(32) = (     0         -1          0      )
                  (     1          0          0      )
                  (     0          0         -1      )

 cart.    s(32) = (  0.0000000  1.0000000  0.0000000 )
                  ( -1.0000000  0.0000000  0.0000000 )
                  (  0.0000000  0.0000000 -1.0000000 )


      isym = 33     inv. 180 deg rotation - cart. axis [1,0,1]   

 cryst.   s(33) = (     0          0         -1      )
                  (     0          1          0      )
                  (    -1          0          0      )

 cart.    s(33) = (  0.0000000  0.0000000 -1.0000000 )
                  (  0.0000000  1.0000000  0.0000000 )
                  ( -1.0000000  0.0000000  0.0000000 )


      isym = 34     inv. 180 deg rotation - cart. axis [-1,0,1]  

 cryst.   s(34) = (     0          0          1      )
                  (     0          1          0      )
                  (     1          0          0      )

 cart.    s(34) = (  0.0000000  0.0000000  1.0000000 )
                  (  0.0000000  1.0000000  0.0000000 )
                  (  1.0000000  0.0000000  0.0000000 )


      isym = 35     inv.  90 deg rotation - cart. axis [0,1,0]   

 cryst.   s(35) = (     0          0          1      )
                  (     0         -1          0      )
                  (    -1          0          0      )

 cart.    s(35) = (  0.0000000  0.0000000 -1.0000000 )
                  (  0.0000000 -1.0000000  0.0000000 )
                  (  1.0000000  0.0000000  0.0000000 )


      isym = 36     inv.  90 deg rotation - cart. axis [0,-1,0]  

 cryst.   s(36) = (     0          0         -1      )
                  (     0         -1          0      )
                  (     1          0          0      )

 cart.    s(36) = (  0.0000000  0.0000000  1.0000000 )
                  (  0.0000000 -1.0000000  0.0000000 )
                  ( -1.0000000  0.0000000  0.0000000 )


      isym = 37     inv. 180 deg rotation - cart. axis [0,1,1]   

 cryst.   s(37) = (     1          0          0      )
                  (     0          0         -1      )
                  (     0         -1          0      )

 cart.    s(37) = (  1.0000000  0.0000000  0.0000000 )
                  (  0.0000000  0.0000000 -1.0000000 )
                  (  0.0000000 -1.0000000  0.0000000 )


      isym = 38     inv. 180 deg rotation - cart. axis [0,1,-1]  

 cryst.   s(38) = (     1          0          0      )
                  (     0          0          1      )
                  (     0          1          0      )

 cart.    s(38) = (  1.0000000  0.0000000  0.0000000 )
                  (  0.0000000  0.0000000  1.0000000 )
                  (  0.0000000  1.0000000  0.0000000 )


      isym = 39     inv.  90 deg rotation - cart. axis [-1,0,0]  

 cryst.   s(39) = (    -1          0          0      )
                  (     0          0          1      )
                  (     0         -1          0      )

 cart.    s(39) = ( -1.0000000  0.0000000  0.0000000 )
                  (  0.0000000  0.0000000 -1.0000000 )
                  (  0.0000000  1.0000000  0.0000000 )


      isym = 40     inv.  90 deg rotation - cart. axis [1,0,0]   

 cryst.   s(40) = (    -1          0          0      )
                  (     0          0         -1      )
                  (     0          1          0      )

 cart.    s(40) = ( -1.0000000  0.0000000  0.0000000 )
                  (  0.0000000  0.0000000  1.0000000 )
                  (  0.0000000 -1.0000000  0.0000000 )


      isym = 41     inv. 120 deg rotation - cart. axis [-1,-1,-1]

 cryst.   s(41) = (     0          0         -1      )
                  (    -1          0          0      )
                  (     0         -1          0      )

 cart.    s(41) = (  0.0000000 -1.0000000  0.0000000 )
                  (  0.0000000  0.0000000 -1.0000000 )
                  ( -1.0000000  0.0000000  0.0000000 )


      isym = 42     inv. 120 deg rotation - cart. axis [-1,1,1]  

 cryst.   s(42) = (     0          0          1      )
                  (     1          0          0      )
                  (     0         -1          0      )

 cart.    s(42) = (  0.0000000  1.0000000  0.0000000 )
                  (  0.0000000  0.0000000 -1.0000000 )
                  (  1.0000000  0.0000000  0.0000000 )


      isym = 43     inv. 120 deg rotation - cart. axis [1,1,-1]  

 cryst.   s(43) = (     0          0          1      )
                  (    -1          0          0      )
                  (     0          1          0      )

 cart.    s(43) = (  0.0000000 -1.0000000  0.0000000 )
                  (  0.0000000  0.0000000  1.0000000 )
                  (  1.0000000  0.0000000  0.0000000 )


      isym = 44     inv. 120 deg rotation - cart. axis [1,-1,1]  

 cryst.   s(44) = (     0          0         -1      )
                  (     1          0          0      )
                  (     0          1          0      )

 cart.    s(44) = (  0.0000000  1.0000000  0.0000000 )
                  (  0.0000000  0.0000000  1.0000000 )
                  ( -1.0000000  0.0000000  0.0000000 )


      isym = 45     inv. 120 deg rotation - cart. axis [1,1,1]   

 cryst.   s(45) = (     0         -1          0      )
                  (     0          0         -1      )
                  (    -1          0          0      )

 cart.    s(45) = (  0.0000000  0.0000000 -1.0000000 )
                  ( -1.0000000  0.0000000  0.0000000 )
                  (  0.0000000 -1.0000000  0.0000000 )


      isym = 46     inv. 120 deg rotation - cart. axis [-1,1,-1] 

 cryst.   s(46) = (     0          1          0      )
                  (     0          0          1      )
                  (    -1          0          0      )

 cart.    s(46) = (  0.0000000  0.0000000 -1.0000000 )
                  (  1.0000000  0.0000000  0.0000000 )
                  (  0.0000000  1.0000000  0.0000000 )


      isym = 47     inv. 120 deg rotation - cart. axis [1,-1,-1] 

 cryst.   s(47) = (     0          1          0      )
                  (     0          0         -1      )
                  (     1          0          0      )

 cart.    s(47) = (  0.0000000  0.0000000  1.0000000 )
                  (  1.0000000  0.0000000  0.0000000 )
                  (  0.0000000 -1.0000000  0.0000000 )


      isym = 48     inv. 120 deg rotation - cart. axis [-1,-1,1] 

 cryst.   s(48) = (     0         -1          0      )
                  (     0          0          1      )
                  (     1          0          0      )

 cart.    s(48) = (  0.0000000  0.0000000  1.0000000 )
                  ( -1.0000000  0.0000000  0.0000000 )
                  (  0.0000000  1.0000000  0.0000000 )


   Cartesian axes

     site n.     atom                  positions (alat units)
         1        Ba     tau(   1) = (   0.0000000   0.0000000   0.0000000  )
         2        Ca     tau(   2) = (   0.5000000   0.5000000   0.5000000  )
         3        O      tau(   3) = (   0.5000000   0.5000000   0.0000000  )
         4        O      tau(   4) = (   0.5000000   0.0000000   0.5000000  )
         5        O      tau(   5) = (   0.0000000   0.5000000   0.5000000  )

   Crystallographic axes

     site n.     atom                  positions (cryst. coord.)
         1        Ba     tau(   1) = (  0.0000000  0.0000000  0.0000000  )
         2        Ca     tau(   2) = (  0.5000000  0.5000000  0.5000000  )
         3        O      tau(   3) = (  0.5000000  0.5000000  0.0000000  )
         4        O      tau(   4) = (  0.5000000  0.0000000  0.5000000  )
         5        O      tau(   5) = (  0.0000000  0.5000000  0.5000000  )

     number of k points=    35  Marzari-Vanderbilt smearing, width (Ry)=  0.0200
                       cart. coord. in units 2pi/alat
        k(    1) = (   0.0500000   0.0500000   0.0500000), wk =   0.0160000
        k(    2) = (   0.0500000   0.0500000   0.1500000), wk =   0.0480000
        k(    3) = (   0.0500000   0.0500000   0.2500000), wk =   0.0480000
        k(    4) = (   0.0500000   0.0500000   0.3500000), wk =   0.0480000
        k(    5) = (   0.0500000   0.0500000   0.4500000), wk =   0.0480000
        k(    6) = (   0.0500000   0.1500000   0.1500000), wk =   0.0480000
        k(    7) = (   0.0500000   0.1500000   0.2500000), wk =   0.0960000
        k(    8) = (   0.0500000   0.1500000   0.3500000), wk =   0.0960000
        k(    9) = (   0.0500000   0.1500000   0.4500000), wk =   0.0960000
        k(   10) = (   0.0500000   0.2500000   0.2500000), wk =   0.0480000
        k(   11) = (   0.0500000   0.2500000   0.3500000), wk =   0.0960000
        k(   12) = (   0.0500000   0.2500000   0.4500000), wk =   0.0960000
        k(   13) = (   0.0500000   0.3500000   0.3500000), wk =   0.0480000
        k(   14) = (   0.0500000   0.3500000   0.4500000), wk =   0.0960000
        k(   15) = (   0.0500000   0.4500000   0.4500000), wk =   0.0480000
        k(   16) = (   0.1500000   0.1500000   0.1500000), wk =   0.0160000
        k(   17) = (   0.1500000   0.1500000   0.2500000), wk =   0.0480000
        k(   18) = (   0.1500000   0.1500000   0.3500000), wk =   0.0480000
        k(   19) = (   0.1500000   0.1500000   0.4500000), wk =   0.0480000
        k(   20) = (   0.1500000   0.2500000   0.2500000), wk =   0.0480000
        k(   21) = (   0.1500000   0.2500000   0.3500000), wk =   0.0960000
        k(   22) = (   0.1500000   0.2500000   0.4500000), wk =   0.0960000
        k(   23) = (   0.1500000   0.3500000   0.3500000), wk =   0.0480000
        k(   24) = (   0.1500000   0.3500000   0.4500000), wk =   0.0960000
        k(   25) = (   0.1500000   0.4500000   0.4500000), wk =   0.0480000
        k(   26) = (   0.2500000   0.2500000   0.2500000), wk =   0.0160000
        k(   27) = (   0.2500000   0.2500000   0.3500000), wk =   0.0480000
        k(   28) = (   0.2500000   0.2500000   0.4500000), wk =   0.0480000
        k(   29) = (   0.2500000   0.3500000   0.3500000), wk =   0.0480000
        k(   30) = (   0.2500000   0.3500000   0.4500000), wk =   0.0960000
        k(   31) = (   0.2500000   0.4500000   0.4500000), wk =   0.0480000
        k(   32) = (   0.3500000   0.3500000   0.3500000), wk =   0.0160000
        k(   33) = (   0.3500000   0.3500000   0.4500000), wk =   0.0480000
        k(   34) = (   0.3500000   0.4500000   0.4500000), wk =   0.0480000
        k(   35) = (   0.4500000   0.4500000   0.4500000), wk =   0.0160000

                       cryst. coord.
        k(    1) = (   0.0500000   0.0500000   0.0500000), wk =   0.0160000
        k(    2) = (   0.0500000   0.0500000   0.1500000), wk =   0.0480000
        k(    3) = (   0.0500000   0.0500000   0.2500000), wk =   0.0480000
        k(    4) = (   0.0500000   0.0500000   0.3500000), wk =   0.0480000
        k(    5) = (   0.0500000   0.0500000   0.4500000), wk =   0.0480000
        k(    6) = (   0.0500000   0.1500000   0.1500000), wk =   0.0480000
        k(    7) = (   0.0500000   0.1500000   0.2500000), wk =   0.0960000
        k(    8) = (   0.0500000   0.1500000   0.3500000), wk =   0.0960000
        k(    9) = (   0.0500000   0.1500000   0.4500000), wk =   0.0960000
        k(   10) = (   0.0500000   0.2500000   0.2500000), wk =   0.0480000
        k(   11) = (   0.0500000   0.2500000   0.3500000), wk =   0.0960000
        k(   12) = (   0.0500000   0.2500000   0.4500000), wk =   0.0960000
        k(   13) = (   0.0500000   0.3500000   0.3500000), wk =   0.0480000
        k(   14) = (   0.0500000   0.3500000   0.4500000), wk =   0.0960000
        k(   15) = (   0.0500000   0.4500000   0.4500000), wk =   0.0480000
        k(   16) = (   0.1500000   0.1500000   0.1500000), wk =   0.0160000
        k(   17) = (   0.1500000   0.1500000   0.2500000), wk =   0.0480000
        k(   18) = (   0.1500000   0.1500000   0.3500000), wk =   0.0480000
        k(   19) = (   0.1500000   0.1500000   0.4500000), wk =   0.0480000
        k(   20) = (   0.1500000   0.2500000   0.2500000), wk =   0.0480000
        k(   21) = (   0.1500000   0.2500000   0.3500000), wk =   0.0960000
        k(   22) = (   0.1500000   0.2500000   0.4500000), wk =   0.0960000
        k(   23) = (   0.1500000   0.3500000   0.3500000), wk =   0.0480000
        k(   24) = (   0.1500000   0.3500000   0.4500000), wk =   0.0960000
        k(   25) = (   0.1500000   0.4500000   0.4500000), wk =   0.0480000
        k(   26) = (   0.2500000   0.2500000   0.2500000), wk =   0.0160000
        k(   27) = (   0.2500000   0.2500000   0.3500000), wk =   0.0480000
        k(   28) = (   0.2500000   0.2500000   0.4500000), wk =   0.0480000
        k(   29) = (   0.2500000   0.3500000   0.3500000), wk =   0.0480000
        k(   30) = (   0.2500000   0.3500000   0.4500000), wk =   0.0960000
        k(   31) = (   0.2500000   0.4500000   0.4500000), wk =   0.0480000
        k(   32) = (   0.3500000   0.3500000   0.3500000), wk =   0.0160000
        k(   33) = (   0.3500000   0.3500000   0.4500000), wk =   0.0480000
        k(   34) = (   0.3500000   0.4500000   0.4500000), wk =   0.0480000
        k(   35) = (   0.4500000   0.4500000   0.4500000), wk =   0.0160000

     Dense  grid:    52515 G-vectors     FFT dimensions: (  48,  48,  48)

     Smooth grid:    13301 G-vectors     FFT dimensions: (  30,  30,  30)

     Dynamical RAM for                 wfc:       0.06 MB

     Dynamical RAM for     wfc (w. buffer):       1.11 MB

     Dynamical RAM for           str. fact:       0.24 MB

     Dynamical RAM for           local pot:       0.00 MB

     Dynamical RAM for          nlocal pot:       0.15 MB

     Dynamical RAM for                qrad:       5.56 MB

     Dynamical RAM for          rho,v,vnew:       0.50 MB

     Dynamical RAM for               rhoin:       0.17 MB

     Dynamical RAM for            rho*nmix:       1.28 MB

     Dynamical RAM for           G-vectors:       0.31 MB

     Dynamical RAM for          h,s,v(r/c):       0.10 MB

     Dynamical RAM for          <psi|beta>:       0.02 MB

     Dynamical RAM for                 psi:       0.12 MB

     Dynamical RAM for                hpsi:       0.12 MB

     Dynamical RAM for                spsi:       0.12 MB

     Dynamical RAM for      wfcinit/wfcrot:       0.15 MB

     Dynamical RAM for           addusdens:       8.38 MB

     Dynamical RAM for          addusforce:       8.55 MB

     Dynamical RAM for         addusstress:       8.84 MB

     Estimated static dynamical RAM per process >       8.81 MB

     Estimated max dynamical RAM per process >      18.93 MB

     Estimated total dynamical RAM >     365.76 MB

     Check: negative core charge=   -0.000003

     Initial potential from superposition of free atoms

     starting charge      37.9791, renormalised to      38.0000
     Starting wfcs are   27 randomized atomic wfcs
     Checking if some PAW data can be deallocated... 
       PAW data deallocated on   16 nodes for type:  1
       PAW data deallocated on    8 nodes for type:  3

     total cpu time spent up to now is        1.6 secs

     Self-consistent Calculation

     iteration #  1     ecut=    30.00 Ry     beta= 0.40
     Davidson diagonalization with overlap

---- Real-time Memory Report at c_bands before calling an iterative solver
            55 MiB given to the printing process from OS
             0 MiB allocation reported by mallinfo(arena+hblkhd)
         26084 MiB available memory on the node where the printing process lives
------------------
     ethr =  1.00E-02,  avg # of iterations =  2.8

     total cpu time spent up to now is        2.6 secs

     total energy              =    -627.95399451 Ry
     estimated scf accuracy    <       0.57436070 Ry

     iteration #  2     ecut=    30.00 Ry     beta= 0.40
     Davidson diagonalization with overlap

---- Real-time Memory Report at c_bands before calling an iterative solver
            58 MiB given to the printing process from OS
             0 MiB allocation reported by mallinfo(arena+hblkhd)
         26077 MiB available memory on the node where the printing process lives
------------------
     ethr =  1.51E-03,  avg # of iterations =  5.2

     total cpu time spent up to now is        4.4 secs

     total energy              =    -628.10440505 Ry
     estimated scf accuracy    <       0.05486365 Ry

     iteration #  3     ecut=    30.00 Ry     beta= 0.40
     Davidson diagonalization with overlap

---- Real-time Memory Report at c_bands before calling an iterative solver
            58 MiB given to the printing process from OS
             0 MiB allocation reported by mallinfo(arena+hblkhd)
         26077 MiB available memory on the node where the printing process lives
------------------
     ethr =  1.44E-04,  avg # of iterations =  9.5

     total cpu time spent up to now is        5.0 secs

     total energy              =    -628.11051506 Ry
     estimated scf accuracy    <       0.00909411 Ry

     iteration #  4     ecut=    30.00 Ry     beta= 0.40
     Davidson diagonalization with overlap

---- Real-time Memory Report at c_bands before calling an iterative solver
            59 MiB given to the printing process from OS
             0 MiB allocation reported by mallinfo(arena+hblkhd)
         26075 MiB available memory on the node where the printing process lives
------------------
     ethr =  2.39E-05,  avg # of iterations =  4.1

     total cpu time spent up to now is        5.7 secs

     total energy              =    -628.11152213 Ry
     estimated scf accuracy    <       0.00167417 Ry

     iteration #  5     ecut=    30.00 Ry     beta= 0.40
     Davidson diagonalization with overlap

---- Real-time Memory Report at c_bands before calling an iterative solver
            59 MiB given to the printing process from OS
             0 MiB allocation reported by mallinfo(arena+hblkhd)
         26079 MiB available memory on the node where the printing process lives
------------------
     ethr =  4.41E-06,  avg # of iterations =  4.9

     total cpu time spent up to now is        6.9 secs

     total energy              =    -628.11176718 Ry
     estimated scf accuracy    <       0.00006432 Ry

     iteration #  6     ecut=    30.00 Ry     beta= 0.40
     Davidson diagonalization with overlap

---- Real-time Memory Report at c_bands before calling an iterative solver
            59 MiB given to the printing process from OS
             0 MiB allocation reported by mallinfo(arena+hblkhd)
         26066 MiB available memory on the node where the printing process lives
------------------
     ethr =  1.69E-07,  avg # of iterations =  2.9

     total cpu time spent up to now is        8.0 secs

     total energy              =    -628.11179298 Ry
     estimated scf accuracy    <       0.00003579 Ry

     iteration #  7     ecut=    30.00 Ry     beta= 0.40
     Davidson diagonalization with overlap

---- Real-time Memory Report at c_bands before calling an iterative solver
            59 MiB given to the printing process from OS
             0 MiB allocation reported by mallinfo(arena+hblkhd)
         26063 MiB available memory on the node where the printing process lives
------------------
     ethr =  9.42E-08,  avg # of iterations =  1.6

     total cpu time spent up to now is        8.6 secs

     total energy              =    -628.11179142 Ry
     estimated scf accuracy    <       0.00000713 Ry

     iteration #  8     ecut=    30.00 Ry     beta= 0.40
     Davidson diagonalization with overlap

---- Real-time Memory Report at c_bands before calling an iterative solver
            59 MiB given to the printing process from OS
             0 MiB allocation reported by mallinfo(arena+hblkhd)
         26080 MiB available memory on the node where the printing process lives
------------------
     ethr =  1.88E-08,  avg # of iterations =  3.5

     total cpu time spent up to now is       10.0 secs

     total energy              =    -628.11179457 Ry
     estimated scf accuracy    <       0.00001046 Ry

     iteration #  9     ecut=    30.00 Ry     beta= 0.40
     Davidson diagonalization with overlap

---- Real-time Memory Report at c_bands before calling an iterative solver
            59 MiB given to the printing process from OS
             0 MiB allocation reported by mallinfo(arena+hblkhd)
         26098 MiB available memory on the node where the printing process lives
------------------
     ethr =  1.88E-08,  avg # of iterations =  2.0

     total cpu time spent up to now is       10.5 secs

     total energy              =    -628.11179470 Ry
     estimated scf accuracy    <       0.00000179 Ry

     iteration # 10     ecut=    30.00 Ry     beta= 0.40
     Davidson diagonalization with overlap

---- Real-time Memory Report at c_bands before calling an iterative solver
            59 MiB given to the printing process from OS
             0 MiB allocation reported by mallinfo(arena+hblkhd)
         26089 MiB available memory on the node where the printing process lives
------------------
     ethr =  4.70E-09,  avg # of iterations =  2.0

     total cpu time spent up to now is       11.0 secs

     End of self-consistent calculation

          k = 0.0500 0.0500 0.0500 (  1692 PWs)   bands (ev):

   -30.3592 -20.0097 -11.7348 -11.7331 -11.7331 -10.0389  -9.7280  -9.7280
    -5.0597  -5.0597  -5.0475   4.4874   4.5585   4.5585   4.9999   4.9999
     5.0634   5.7017   5.7496   5.7496  10.3687  10.3688  10.6857

     occupation numbers 
     1.0000   1.0000   1.0000   1.0000   1.0000   1.0000   1.0000   1.0000
     1.0000   1.0000   1.0000   1.0000   1.0001   1.0001   1.0502   1.0502
     1.0713   0.0839   0.0487   0.0487   0.0000   0.0000   0.0000

          k = 0.0500 0.0500 0.1500 (  1683 PWs)   bands (ev):

   -30.3585 -20.0066 -11.9061 -11.7333 -11.7316  -9.9987  -9.7258  -9.5455
    -5.0617  -5.0546  -5.0316   4.3820   4.5388   4.5639   4.8712   4.9373
     5.0488   5.4264   5.7023   5.7161  10.5812  10.6048  11.0417

     occupation numbers 
     1.0000   1.0000   1.0000   1.0000   1.0000   1.0000   1.0000   1.0000
     1.0000   1.0000   1.0000   1.0000   1.0001   1.0001   1.0155   1.0304
     1.0668   0.6466   0.0834   0.0716   0.0000   0.0000   0.0000

          k = 0.0500 0.0500 0.2500 (  1681 PWs)   bands (ev):

   -30.3573 -20.0016 -12.1275 -11.7319 -11.7291 -10.0050  -9.7222  -9.2329
    -5.0540  -5.0462  -5.0166   4.2217   4.5014   4.5042   4.7117   4.8116
     4.9844   5.0532   5.6447   5.6673  10.9371  10.9841  11.7132

     occupation numbers 
     1.0000   1.0000   1.0000   1.0000   1.0000   1.0000   1.0000   1.0000
     1.0000   1.0000   1.0000   1.0000   1.0000   1.0000   1.0018   1.0075
     1.0449   1.0682   0.1488   0.1197   0.0000   0.0000   0.0000

          k = 0.0500 0.0500 0.3500 (  1678 PWs)   bands (ev):

   -30.3561 -19.9966 -12.3080 -11.7305 -11.7267 -10.0284  -9.7185  -8.9390
    -5.0396  -5.0379  -5.0083   4.0827   4.4206   4.4454   4.5322   4.5870
     4.8779   4.9129   5.6020   5.6204  11.3164  11.3787  12.2845

     occupation numbers 
     1.0000   1.0000   1.0000   1.0000   1.0000   1.0000   1.0000   1.0000
     1.0000   1.0000   1.0000   1.0000   1.0000   1.0000   1.0001   1.0002
     1.0167   1.0241   0.2166   0.1853   0.0000   0.0000   0.0000

          k = 0.0500 0.0500 0.4500 (  1664 PWs)   bands (ev):

   -30.3553 -19.9935 -12.4062 -11.7297 -11.7251 -10.0453  -9.7161  -8.7656
    -5.0327  -5.0251  -5.0088   4.0160   4.2731   4.3884   4.4173   4.5334
     4.8482   4.8871   5.5654   5.5957  11.5737  11.6374  12.6006

     occupation numbers 
     1.0000   1.0000   1.0000   1.0000   1.0000   1.0000   1.0000   1.0000
     1.0000   1.0000   1.0000   1.0000   1.0000   1.0000   1.0000   1.0001
     1.0119   1.0185   0.2886   0.2282   0.0000   0.0000   0.0000

          k = 0.0500 0.1500 0.1500 (  1676 PWs)   bands (ev):

   -30.3577 -20.0035 -11.9087 -11.9035 -11.7311  -9.9314  -9.5960  -9.5122
    -5.0751  -5.0522  -5.0121   4.2407   4.5336   4.5975   4.7165   4.8630
     5.1062   5.3042   5.5633   5.6743  10.7501  10.8481  11.2906

     occupation numbers 
     1.0000   1.0000   1.0000   1.0000   1.0000   1.0000   1.0000   1.0000
     1.0000   1.0000   1.0000   1.0000   1.0001   1.0002   1.0019   1.0141
     1.0812   0.9397   0.2931   0.1116   0.0000   0.0000   0.0000

          k = 0.0500 0.1500 0.2500 (  1667 PWs)   bands (ev):

   -30.3566 -19.9985 -12.1287 -11.9062 -11.7291  -9.9198  -9.5651  -9.2368
    -5.0793  -5.0449  -5.0011   4.0782   4.4876   4.5303   4.5616   4.7562
     5.0113   5.1429   5.4899   5.6292  11.0558  11.2445  11.7826

     occupation numbers 
     1.0000   1.0000   1.0000   1.0000   1.0000   1.0000   1.0000   1.0000
     1.0000   1.0000   1.0000   1.0000   1.0000   1.0001   1.0001   1.0035
     1.0541   1.0830   0.4723   0.1714   0.0000   0.0000   0.0000

          k = 0.0500 0.1500 0.3500 (  1667 PWs)   bands (ev):

   -30.3554 -19.9935 -12.3099 -11.9065 -11.7271  -9.9304  -9.5643  -8.9456
    -5.0710  -5.0377  -5.0028   3.9546   4.2906   4.4236   4.4969   4.5882
     4.8678   5.1521   5.4196   5.5735  11.4195  11.6396  12.3427

     occupation numbers 
     1.0000   1.0000   1.0000   1.0000   1.0000   1.0000   1.0000   1.0000
     1.0000   1.0000   1.0000   1.0000   1.0000   1.0000   1.0000   1.0002
     1.0150   1.0820   0.6653   0.2716   0.0000   0.0000   0.0000

          k = 0.0500 0.1500 0.4500 (  1663 PWs)   bands (ev):

   -30.3546 -19.9904 -12.4084 -11.9067 -11.7259  -9.9401  -9.5644  -8.7728
    -5.0566  -5.0339  -5.0123   3.9294   4.0454   4.3798   4.4594   4.5003
     4.8298   5.1762   5.3755   5.5367  11.6804  11.8989  12.6601

     occupation numbers 
     1.0000   1.0000   1.0000   1.0000   1.0000   1.0000   1.0000   1.0000
     1.0000   1.0000   1.0000   1.0000   1.0000   1.0000   1.0000   1.0000
     1.0095   1.0762   0.7821   0.3537   0.0000   0.0000   0.0000

          k = 0.0500 0.2500 0.2500 (  1665 PWs)   bands (ev):

   -30.3554 -19.9935 -12.1329 -12.1284 -11.7271  -9.8883  -9.2912  -9.2135
    -5.0990  -5.0413  -4.9988   3.8937   4.3212   4.4811   4.5502   4.6807
     4.9024   5.1284   5.4249   5.5603  11.2827  11.7031  11.9823

     occupation numbers 
     1.0000   1.0000   1.0000   1.0000   1.0000   1.0000   1.0000   1.0000
     1.0000   1.0000   1.0000   1.0000   1.0000   1.0000   1.0001   1.0011
     1.0217   1.0833   0.6506   0.2997   0.0000   0.0000   0.0000

          k = 0.0500 0.2500 0.3500 (  1656 PWs)   bands (ev):

   -30.3542 -19.9884 -12.3130 -12.1327 -11.7250  -9.8816  -9.2636  -8.9560
    -5.1027  -5.0463  -5.0033   3.7404   4.1257   4.4172   4.5051   4.5663
     4.8363   5.1136   5.4413   5.4987  11.5931  12.1134  12.2873

     occupation numbers 
     1.0000   1.0000   1.0000   1.0000   1.0000   1.0000   1.0000   1.0000
     1.0000   1.0000   1.0000   1.0000   1.0000   1.0000   1.0000   1.0001
     1.0103   1.0822   0.6053   0.4491   0.0000   0.0000   0.0000

          k = 0.0500 0.2500 0.4500 (  1661 PWs)   bands (ev):

   -30.3534 -19.9853 -12.4121 -12.1341 -11.7238  -9.8810  -9.2667  -8.7846
    -5.0910  -5.0648  -5.0045   3.6694   3.9349   4.3717   4.4740   4.4959
     4.8345   5.0965   5.4361   5.4608  11.8628  12.3316  12.4411

     occupation numbers 
     1.0000   1.0000   1.0000   1.0000   1.0000   1.0000   1.0000   1.0000
     1.0000   1.0000   1.0000   1.0000   1.0000   1.0000   1.0000   1.0000
     1.0101   1.0796   0.6196   0.5514   0.0000   0.0000   0.0000

          k = 0.0500 0.3500 0.3500 (  1652 PWs)   bands (ev):

   -30.3530 -19.9834 -12.3172 -12.3153 -11.7230  -9.8615  -8.9873  -8.9515
    -5.1212  -5.0716  -4.9992   3.5456   3.9669   4.4019   4.4249   4.5003
     4.8385   5.0390   5.4332   5.5568  11.8021  12.2011  12.5976

     occupation numbers 
     1.0000   1.0000   1.0000   1.0000   1.0000   1.0000   1.0000   1.0000
     1.0000   1.0000   1.0000   1.0000   1.0000   1.0000   1.0000   1.0000
     1.0106   1.0636   0.6278   0.3075   0.0000   0.0000   0.0000

          k = 0.0500 0.3500 0.4500 (  1663 PWs)   bands (ev):

   -30.3523 -19.9803 -12.4159 -12.3183 -11.7217  -9.8530  -8.9765  -8.7965
    -5.1206  -5.1006  -4.9951   3.4394   3.8259   4.3493   4.3968   4.4349
     4.8940   4.9967   5.3826   5.5974  11.9809  12.1516  12.7828

     occupation numbers 
     1.0000   1.0000   1.0000   1.0000   1.0000   1.0000   1.0000   1.0000
     1.0000   1.0000   1.0000   1.0000   1.0000   1.0000   1.0000   1.0000
     1.0199   1.0490   0.7641   0.2251   0.0000   0.0000   0.0000

          k = 0.0500 0.4500 0.4500 (  1657 PWs)   bands (ev):

   -30.3515 -19.9771 -12.4184 -12.4182 -11.7204  -9.8398  -8.8063  -8.8019
    -5.1341  -5.1267  -4.9892   3.3149   3.7247   4.2974   4.3709   4.3872
     4.9604   4.9988   5.3349   5.6885  11.8481  12.2686  12.8695

     occupation numbers 
     1.0000   1.0000   1.0000   1.0000   1.0000   1.0000   1.0000   1.0000
     1.0000   1.0000   1.0000   1.0000   1.0000   1.0000   1.0000   1.0000
     1.0372   1.0498   0.8780   0.0965   0.0000   0.0000   0.0000

          k = 0.1500 0.1500 0.1500 (  1683 PWs)   bands (ev):

   -30.3570 -20.0005 -11.9141 -11.9016 -11.9016  -9.7861  -9.5096  -9.5096
    -5.0764  -5.0764  -4.9895   4.0954   4.5588   4.5588   4.7011   4.7011
     5.1756   5.1823   5.5333   5.5333  10.9645  10.9645  11.4781

     occupation numbers 
     1.0000   1.0000   1.0000   1.0000   1.0000   1.0000   1.0000   1.0000
     1.0000   1.0000   1.0000   1.0000   1.0001   1.0001   1.0015   1.0015
     1.0764   1.0739   0.3618   0.3618   0.0000   0.0000   0.0000

          k = 0.1500 0.1500 0.2500 (  1665 PWs)   bands (ev):

   -30.3558 -19.9955 -12.1292 -11.9117 -11.8983  -9.7383  -9.5049  -9.2375
    -5.0875  -5.0784  -4.9808   3.9542   4.4607   4.5028   4.6151   4.6174
     4.9970   5.2119   5.4369   5.4959  11.2208  11.3394  11.8357

     occupation numbers 
     1.0000   1.0000   1.0000   1.0000   1.0000   1.0000   1.0000   1.0000
     1.0000   1.0000   1.0000   1.0000   1.0000   1.0000   1.0003   1.0003
     1.0492   1.0574   0.6175   0.4563   0.0000   0.0000   0.0000

          k = 0.1500 0.1500 0.3500 (  1670 PWs)   bands (ev):

   -30.3546 -19.9905 -12.3108 -11.9140 -11.8951  -9.7436  -9.5002  -8.9496
    -5.0809  -5.0805  -4.9899   3.8564   4.2862   4.3456   4.4073   4.5687
     4.9981   5.2076   5.3427   5.4493  11.5658  11.7199  12.2592

     occupation numbers 
     1.0000   1.0000   1.0000   1.0000   1.0000   1.0000   1.0000   1.0000
     1.0000   1.0000   1.0000   1.0000   1.0000   1.0000   1.0000   1.0001
     1.0495   1.0603   0.8609   0.5832   0.0000   0.0000   0.0000

          k = 0.1500 0.1500 0.4500 (  1662 PWs)   bands (ev):

   -30.3539 -19.9874 -12.4096 -11.9154 -11.8930  -9.7519  -9.4974  -8.7772
    -5.0818  -5.0631  -5.0091   3.8668   4.0091   4.2857   4.3427   4.5439
     5.0887   5.2060   5.2518   5.4138  11.8459  11.9570  12.5368

     occupation numbers 
     1.0000   1.0000   1.0000   1.0000   1.0000   1.0000   1.0000   1.0000
     1.0000   1.0000   1.0000   1.0000   1.0000   1.0000   1.0000   1.0001
     1.0780   1.0614   1.0194   0.6810   0.0000   0.0000   0.0000

          k = 0.1500 0.2500 0.2500 (  1666 PWs)   bands (ev):

   -30.3546 -19.9905 -12.1341 -12.1257 -11.9030  -9.6535  -9.2842  -9.2094
    -5.1105  -5.0903  -4.9801   3.8127   4.3138   4.4401   4.5414   4.6401
     4.8280   5.2566   5.3973   5.4198  11.4410  11.6512  11.9805

     occupation numbers 
     1.0000   1.0000   1.0000   1.0000   1.0000   1.0000   1.0000   1.0000
     1.0000   1.0000   1.0000   1.0000   1.0000   1.0000   1.0001   1.0005
     1.0093   1.0135   0.7256   0.6648   0.0000   0.0000   0.0000

          k = 0.1500 0.2500 0.3500 (  1659 PWs)   bands (ev):

   -30.3535 -19.9855 -12.3124 -12.1308 -11.9012  -9.6416  -9.2536  -8.9554
    -5.1197  -5.0975  -4.9975   3.7230   4.1247   4.3456   4.3764   4.5917
     4.8795   5.2203   5.3611   5.4267  11.7322  11.9997  12.1795

     occupation numbers 
     1.0000   1.0000   1.0000   1.0000   1.0000   1.0000   1.0000   1.0000
     1.0000   1.0000   1.0000   1.0000   1.0000   1.0000   1.0000   1.0002
     1.0170   1.0510   0.8178   0.6458   0.0000   0.0000   0.0000

          k = 0.1500 0.2500 0.4500 (  1660 PWs)   bands (ev):

   -30.3527 -19.9825 -12.4116 -12.1316 -11.9000  -9.6405  -9.2535  -8.7846
    -5.1180  -5.0988  -5.0187   3.7014   3.9146   4.2620   4.3191   4.5702
     4.9796   5.1468   5.3267   5.4367  12.0111  12.2104  12.2933

     occupation numbers 
     1.0000   1.0000   1.0000   1.0000   1.0000   1.0000   1.0000   1.0000
     1.0000   1.0000   1.0000   1.0000   1.0000   1.0000   1.0000   1.0001
     1.0433   1.0826   0.8957   0.6180   0.0000   0.0000   0.0000

          k = 0.1500 0.3500 0.3500 (  1657 PWs)   bands (ev):

   -30.3523 -19.9806 -12.3160 -12.3121 -11.8986  -9.6165  -8.9838  -8.9456
    -5.1432  -5.1170  -5.0172   3.6015   3.9609   4.3227   4.3286   4.4677
     4.8808   5.1984   5.2860   5.5558  11.8814  12.1608  12.3061

     occupation numbers 
     1.0000   1.0000   1.0000   1.0000   1.0000   1.0000   1.0000   1.0000
     1.0000   1.0000   1.0000   1.0000   1.0000   1.0000   1.0000   1.0000
     1.0173   1.0661   0.9713   0.3096   0.0000   0.0000   0.0000

          k = 0.1500 0.3500 0.4500 (  1662 PWs)   bands (ev):

   -30.3515 -19.9775 -12.4136 -12.3152 -11.8970  -9.6077  -8.9691  -8.7921
    -5.1481  -5.1340  -5.0336   3.5393   3.8165   4.2685   4.2886   4.4117
     4.9651   5.1542   5.2508   5.6059  11.9434  12.2417  12.4934

     occupation numbers 
     1.0000   1.0000   1.0000   1.0000   1.0000   1.0000   1.0000   1.0000
     1.0000   1.0000   1.0000   1.0000   1.0000   1.0000   1.0000   1.0000
     1.0386   1.0817   1.0205   0.2098   0.0000   0.0000   0.0000

          k = 0.1500 0.4500 0.4500 (  1670 PWs)   bands (ev):

   -30.3508 -19.9745 -12.4152 -12.4147 -11.8950  -9.5946  -8.7996  -8.7948
    -5.1626  -5.1574  -5.0444   3.4442   3.7154   4.2613   4.2624   4.3023
     5.0371   5.1627   5.1793   5.6907  11.7783  12.4217  12.5559

     occupation numbers 
     1.0000   1.0000   1.0000   1.0000   1.0000   1.0000   1.0000   1.0000
     1.0000   1.0000   1.0000   1.0000   1.0000   1.0000   1.0000   1.0000
     1.0629   1.0801   1.0751   0.0943   0.0000   0.0000   0.0000

          k = 0.2500 0.2500 0.2500 (  1658 PWs)   bands (ev):

   -30.3535 -19.9857 -12.1423 -12.1214 -12.1214  -9.4004  -9.2025  -9.2025
    -5.1293  -5.1293  -4.9896   3.7295   4.3005   4.3005   4.5276   4.6386
     4.6386   5.3533   5.3533   5.3808  11.7122  11.7122  12.0007

     occupation numbers 
     1.0000   1.0000   1.0000   1.0000   1.0000   1.0000   1.0000   1.0000
     1.0000   1.0000   1.0000   1.0000   1.0000   1.0000   1.0001   1.0005
     1.0005   0.8365   0.8365   0.7687   0.0000   0.0000   0.0000

          k = 0.2500 0.2500 0.3500 (  1663 PWs)   bands (ev):

   -30.3523 -19.9808 -12.3116 -12.1368 -12.1172  -9.3521  -9.1957  -8.9538
    -5.1483  -5.1461  -5.0206   3.6860   4.1405   4.1872   4.3108   4.6357
     4.6748   5.3065   5.3505   5.4475  11.9244  11.9590  12.0532

     occupation numbers 
     1.0000   1.0000   1.0000   1.0000   1.0000   1.0000   1.0000   1.0000
     1.0000   1.0000   1.0000   1.0000   1.0000   1.0000   1.0000   1.0005
     1.0010   0.9356   0.8429   0.5881   0.0000   0.0000   0.0000

          k = 0.2500 0.2500 0.4500 (  1676 PWs)   bands (ev):

   -30.3516 -19.9778 -12.4108 -12.1382 -12.1145  -9.3488  -9.1915  -8.7849
    -5.1601  -5.1429  -5.0532   3.7091   3.8824   4.1329   4.2576   4.6330
     4.7088   5.2739   5.3278   5.4649  12.0736  12.1035  12.2366

     occupation numbers 
     1.0000   1.0000   1.0000   1.0000   1.0000   1.0000   1.0000   1.0000
     1.0000   1.0000   1.0000   1.0000   1.0000   1.0000   1.0000   1.0005
     1.0017   0.9900   0.8933   0.5402   0.0000   0.0000   0.0000

          k = 0.2500 0.3500 0.3500 (  1662 PWs)   bands (ev):

   -30.3511 -19.9760 -12.3142 -12.3070 -12.1233  -9.2781  -8.9757  -8.9360
    -5.1788  -5.1735  -5.0615   3.6598   3.9843   4.1983   4.2106   4.4634
     4.6830   5.3356   5.3646   5.5564  11.9004  12.0425  12.0609

     occupation numbers 
     1.0000   1.0000   1.0000   1.0000   1.0000   1.0000   1.0000   1.0000
     1.0000   1.0000   1.0000   1.0000   1.0000   1.0000   1.0000   1.0000
     1.0011   0.8766   0.8093   0.3083   0.0000   0.0000   0.0000

          k = 0.2500 0.3500 0.4500 (  1664 PWs)   bands (ev):

   -30.3504 -19.9731 -12.4099 -12.3101 -12.1213  -9.2674  -8.9560  -8.7851
    -5.1938  -5.1831  -5.0974   3.6742   3.8025   4.1340   4.2057   4.4161
     4.7051   5.3374   5.3775   5.6149  11.8456  12.0780  12.1638

     occupation numbers 
     1.0000   1.0000   1.0000   1.0000   1.0000   1.0000   1.0000   1.0000
     1.0000   1.0000   1.0000   1.0000   1.0000   1.0000   1.0000   1.0000
     1.0016   0.8726   0.7771   0.1944   0.0000   0.0000   0.0000

          k = 0.2500 0.4500 0.4500 (  1667 PWs)   bands (ev):

   -30.3497 -19.9702 -12.4099 -12.4090 -12.1189  -9.2526  -8.7884  -8.7831
    -5.2086  -5.2070  -5.1311   3.6478   3.6988   4.1558   4.1564   4.3037
     4.7194   5.3747   5.3878   5.7048  11.6660  12.1153  12.1170

     occupation numbers 
     1.0000   1.0000   1.0000   1.0000   1.0000   1.0000   1.0000   1.0000
     1.0000   1.0000   1.0000   1.0000   1.0000   1.0000   1.0000   1.0000
     1.0020   0.7842   0.7504   0.0812   0.0000   0.0000   0.0000

          k = 0.3500 0.3500 0.3500 (  1676 PWs)   bands (ev):

   -30.3499 -19.9715 -12.3167 -12.3018 -12.3018  -9.0184  -8.9263  -8.9263
    -5.2145  -5.2145  -5.1195   3.6874   3.9771   4.1042   4.1042   4.4548
     4.4548   5.4535   5.4535   5.5879  11.8117  11.8995  11.8995

     occupation numbers 
     1.0000   1.0000   1.0000   1.0000   1.0000   1.0000   1.0000   1.0000
     1.0000   1.0000   1.0000   1.0000   1.0000   1.0000   1.0000   1.0000
     1.0000   0.5715   0.5715   0.2430   0.0000   0.0000   0.0000

          k = 0.3500 0.3500 0.4500 (  1670 PWs)   bands (ev):

   -30.3492 -19.9687 -12.4063 -12.3104 -12.2986  -8.9865  -8.9203  -8.7781
    -5.2365  -5.2281  -5.1660   3.6924   3.8470   4.0634   4.1243   4.3902
     4.4543   5.4743   5.5467   5.6401  11.7200  11.8266  11.8466

     occupation numbers 
     1.0000   1.0000   1.0000   1.0000   1.0000   1.0000   1.0000   1.0000
     1.0000   1.0000   1.0000   1.0000   1.0000   1.0000   1.0000   1.0000
     1.0000   0.5145   0.3302   0.1552   0.0000   0.0000   0.0000

          k = 0.3500 0.4500 0.4500 (  1657 PWs)   bands (ev):

   -30.3485 -19.9659 -12.4046 -12.4033 -12.3012  -8.9471  -8.7769  -8.7712
    -5.2557  -5.2546  -5.2153   3.6265   3.8724   4.0751   4.0759   4.3059
     4.4425   5.5869   5.5955   5.7140  11.5556  11.7206  11.7262

     occupation numbers 
     1.0000   1.0000   1.0000   1.0000   1.0000   1.0000   1.0000   1.0000
     1.0000   1.0000   1.0000   1.0000   1.0000   1.0000   1.0000   1.0000
     1.0000   0.2448   0.2285   0.0733   0.0000   0.0000   0.0000

          k = 0.4500 0.4500 0.4500 (  1658 PWs)   bands (ev):

   -30.3478 -19.9633 -12.4021 -12.3997 -12.3997  -8.7755  -8.7636  -8.7636
    -5.2829  -5.2829  -5.2690   3.5640   3.9872   4.0475   4.0475   4.2985
     4.2985   5.6948   5.6948   5.7244  11.4798  11.4997  11.4997

     occupation numbers 
     1.0000   1.0000   1.0000   1.0000   1.0000   1.0000   1.0000   1.0000
     1.0000   1.0000   1.0000   1.0000   1.0000   1.0000   1.0000   1.0000
     1.0000   0.0903   0.0903   0.0653   0.0000   0.0000   0.0000

     the Fermi energy is     5.5175 ev

!    total energy              =    -628.11179490 Ry
     estimated scf accuracy    <       0.00000010 Ry
     smearing contrib. (-TS)   =      -0.00198715 Ry
     internal energy E=F+TS    =    -628.10980775 Ry

     The total energy is F=E-TS. E is the sum of the following terms:
     one-electron contribution =     -64.16340762 Ry
     hartree contribution      =      52.16071200 Ry
     xc contribution           =     -53.67128814 Ry
     ewald contribution        =    -166.45952522 Ry
     one-center paw contrib.   =    -395.97629878 Ry
      -> PAW hartree energy AE =      28.32897920 Ry
      -> PAW hartree energy PS =     -28.20972717 Ry
      -> PAW xc energy AE      =    -387.73428333 Ry
      -> PAW xc energy PS      =      19.01654085 Ry
      -> total E_H with PAW    =      52.27996403 Ry
      -> total E_XC with PAW   =    -422.38903061 Ry

     convergence has been achieved in  10 iterations

     Forces acting on atoms (cartesian axes, Ry/au):

     atom    1 type  1   force =     0.00000000    0.00000000    0.00000000
     atom    2 type  2   force =     0.00000000    0.00000000    0.00000000
     atom    3 type  3   force =     0.00000000    0.00000000    0.00000000
     atom    4 type  3   force =     0.00000000    0.00000000    0.00000000
     atom    5 type  3   force =     0.00000000    0.00000000    0.00000000
     The non-local contrib.  to forces
     atom    1 type  1   force =     0.00000000    0.00000000    0.00000000
     atom    2 type  2   force =     0.00000000    0.00000000    0.00000000
     atom    3 type  3   force =     0.00000000    0.00000000    0.00000000
     atom    4 type  3   force =     0.00000000    0.00000000    0.00000000
     atom    5 type  3   force =     0.00000000    0.00000000    0.00000000
     The ionic contribution  to forces
     atom    1 type  1   force =    -0.00000000   -0.00000000   -0.00000000
     atom    2 type  2   force =     0.00000000    0.00000000    0.00000000
     atom    3 type  3   force =     0.00000000    0.00000000   -0.00000000
     atom    4 type  3   force =     0.00000000   -0.00000000    0.00000000
     atom    5 type  3   force =    -0.00000000    0.00000000    0.00000000
     The local contribution  to forces
     atom    1 type  1   force =    -0.00000000   -0.00000000    0.00000000
     atom    2 type  2   force =     0.00000000    0.00000000    0.00000000
     atom    3 type  3   force =     0.00000000    0.00000000   -0.00000000
     atom    4 type  3   force =     0.00000000   -0.00000000    0.00000000
     atom    5 type  3   force =    -0.00000000    0.00000000    0.00000000
     The core correction contribution to forces
     atom    1 type  1   force =    -0.00000000   -0.00000000   -0.00000000
     atom    2 type  2   force =    -0.00000000   -0.00000000    0.00000000
     atom    3 type  3   force =     0.00000000    0.00000000   -0.00000000
     atom    4 type  3   force =    -0.00000000   -0.00000000    0.00000000
     atom    5 type  3   force =     0.00000000   -0.00000000    0.00000000
     The Hubbard contrib.    to forces
     atom    1 type  1   force =     0.00000000    0.00000000    0.00000000
     atom    2 type  2   force =     0.00000000    0.00000000    0.00000000
     atom    3 type  3   force =     0.00000000    0.00000000    0.00000000
     atom    4 type  3   force =     0.00000000    0.00000000    0.00000000
     atom    5 type  3   force =     0.00000000    0.00000000    0.00000000
     The SCF correction term to forces
     atom    1 type  1   force =    -0.00000000   -0.00000000    0.00000000
     atom    2 type  2   force =    -0.00000000   -0.00000000    0.00000000
     atom    3 type  3   force =    -0.00000000    0.00000000   -0.00000000
     atom    4 type  3   force =     0.00000000    0.00000000   -0.00000000
     atom    5 type  3   force =     0.00000000    0.00000000    0.00000000

     Total force =     0.000000     Total SCF correction =     0.000000


     Computing stress (Cartesian axis) and pressure

          total   stress  (Ry/bohr**3)                   (kbar)     P=     -278.82
  -0.00189535   0.00000000   0.00000000         -278.82        0.00        0.00
   0.00000000  -0.00189535   0.00000000            0.00     -278.82        0.00
   0.00000000   0.00000000  -0.00189535            0.00        0.00     -278.82

     kinetic stress (kbar)  14469.68      0.00      0.00
                                0.00  14469.68      0.00
                                0.00      0.00  14469.68

     local   stress (kbar)  -6238.06      0.00     -0.00
                                0.00  -6238.06      0.00
                               -0.00      0.00  -6238.06

     nonloc. stress (kbar)   4262.46      0.00      0.00
                                0.00   4262.46      0.00
                                0.00      0.00   4262.46

     hartree stress (kbar)   4259.48     -0.00     -0.00
                               -0.00   4259.48     -0.00
                               -0.00     -0.00   4259.48

     exc-cor stress (kbar)    451.80      0.00     -0.00
                                0.00    451.80     -0.00
                               -0.00     -0.00    451.80

     corecor stress (kbar)  -3890.97     -0.00      0.00
                               -0.00  -3890.97      0.00
                                0.00      0.00  -3890.97

     ewald   stress (kbar) -13593.20      0.00     -0.00
                                0.00 -13593.20     -0.00
                               -0.00     -0.00 -13593.20

     hubbard stress (kbar)      0.00      0.00      0.00
                                0.00      0.00      0.00
                                0.00      0.00      0.00

     DFT-D   stress (kbar)      0.00      0.00      0.00
                                0.00      0.00      0.00
                                0.00      0.00      0.00

     XDM     stress (kbar)      0.00      0.00      0.00
                                0.00      0.00      0.00
                                0.00      0.00      0.00

     dft-nl  stress (kbar)      0.00      0.00      0.00
                                0.00      0.00      0.00
                                0.00      0.00      0.00

     TS-vdW  stress (kbar)      0.00      0.00      0.00
                                0.00      0.00      0.00
                                0.00      0.00      0.00

     MDB     stress (kbar)      0.00      0.00      0.00
                                0.00      0.00      0.00
                                0.00      0.00      0.00

     3D-RISM stress (kbar)      0.00      0.00      0.00
                                0.00      0.00      0.00
                                0.00      0.00      0.00


     Writing all to output data dir ./out/BCO.save/ :
     XML data file, charge density, pseudopotentials, collected wavefunctions

     init_run     :      0.84s CPU      1.00s WALL (       1 calls)
     electrons    :      8.48s CPU      9.44s WALL (       1 calls)
     forces       :      0.11s CPU      0.12s WALL (       1 calls)
     stress       :      0.75s CPU      0.76s WALL (       1 calls)

     Called by init_run:
     wfcinit      :      0.11s CPU      0.12s WALL (       1 calls)
     wfcinit:atom :      0.00s CPU      0.00s WALL (      18 calls)
     wfcinit:wfcr :      0.10s CPU      0.11s WALL (      18 calls)
     potinit      :      0.21s CPU      0.35s WALL (       1 calls)
     hinit0       :      0.46s CPU      0.46s WALL (       1 calls)

     Called by electrons:
     c_bands      :      6.20s CPU      6.98s WALL (      10 calls)
     sum_band     :      1.18s CPU      1.31s WALL (      10 calls)
     v_of_rho     :      0.08s CPU      0.08s WALL (      11 calls)
     v_h          :      0.00s CPU      0.00s WALL (      11 calls)
     v_xc         :      0.09s CPU      0.10s WALL (      13 calls)
     newd         :      0.34s CPU      0.37s WALL (      11 calls)
     PAW_pot      :      0.67s CPU      0.71s WALL (      11 calls)
     mix_rho      :      0.01s CPU      0.01s WALL (      10 calls)

     Called by c_bands:
     init_us_2    :      0.03s CPU      0.04s WALL (     414 calls)
     init_us_2:cp :      0.03s CPU      0.04s WALL (     414 calls)
     cegterg      :      4.74s CPU      5.42s WALL (     180 calls)

     Called by sum_band:
     sum_band:wei :      0.01s CPU      0.01s WALL (      10 calls)
     sum_band:loo :      0.43s CPU      0.53s WALL (      10 calls)
     sum_band:buf :      0.00s CPU      0.00s WALL (     180 calls)
     sum_band:ini :      0.01s CPU      0.01s WALL (     180 calls)
     sum_band:cal :      0.14s CPU      0.16s WALL (     180 calls)
     sum_band:bec :      0.01s CPU      0.01s WALL (     180 calls)
     addusdens    :      0.29s CPU      0.30s WALL (      10 calls)
                                        0.00s GPU  (      10 calls)
     addusd:skk   :      0.00s CPU      0.00s WALL (      30 calls)
                                        0.00s GPU  (      30 calls)

     Called by *egterg:
     cdiaghg      :      0.67s CPU      0.77s WALL (     878 calls)
     cegterg:over :      0.53s CPU      0.60s WALL (     698 calls)
     cegterg:upda :      0.12s CPU      0.14s WALL (     698 calls)
     cegterg:last :      0.27s CPU      0.30s WALL (     379 calls)
     h_psi        :      2.35s CPU      2.70s WALL (     896 calls)
     s_psi        :      0.26s CPU      0.29s WALL (     896 calls)
     g_psi        :      0.00s CPU      0.00s WALL (     698 calls)

     Called by h_psi:
     h_psi:calbec :      0.43s CPU      0.48s WALL (     896 calls)
     vloc_psi     :      1.65s CPU      1.93s WALL (     896 calls)
     add_vuspsi   :      0.26s CPU      0.29s WALL (     896 calls)

     General routines
     calbec       :      0.76s CPU      0.83s WALL (    1166 calls)
     fft          :      0.29s CPU      0.30s WALL (     166 calls)
     ffts         :      0.10s CPU      0.21s WALL (      21 calls)
     fftw         :      1.79s CPU      2.13s WALL (   26814 calls)
     interpolate  :      0.09s CPU      0.19s WALL (      11 calls)

     Parallel routines

     PAW routines
     PAW_pot      :      0.67s CPU      0.71s WALL (      11 calls)
     PAW_symme    :      0.04s CPU      0.06s WALL (      21 calls)

     PWSCF        :     10.92s CPU     12.08s WALL


   This run was terminated on:  18:40:54   7Apr2025            

=------------------------------------------------------------------------------=
   JOB DONE.
=------------------------------------------------------------------------------=
