
     Program PWSCF v.7.3 starts on  7Apr2025 at 18:18:11 

     This program is part of the open-source Quantum ESPRESSO suite
     for quantum simulation of materials; please cite
         "P. Giannozzi et al., J. Phys.:Condens. Matter 21 395502 (2009);
         "P. Giannozzi et al., J. Phys.:Condens. Matter 29 465901 (2017);
         "P. Giannozzi et al., J. Chem. Phys. 152 154105 (2020);
          URL http://www.quantum-espresso.org", 
     in publications or presentations arising from this work. More details at
     http://www.quantum-espresso.org/quote

     Parallel version (MPI), running on    20 processors

     MPI processes distributed on     1 nodes
     27048 MiB available memory on the printing compute node when the environment starts

     Waiting for input...
     Reading input from standard input

     Current dimensions of program PWSCF are:
     Max number of different atomic species (ntypx) = 10
     Max number of k-points (npk) = 120000
     Max angular momentum in pseudopotentials (lmaxx) =  4
     file Ba.pbesol-spn-kjpaw_psl.1.0.0.UPF: wavefunction(s)  5S 6S renormalized
     file O.pbesol-n-kjpaw_psl.0.1.UPF: wavefunction(s)  2P renormalized
     Message from routine setup:
     using ibrav=0 with symmetry is DISCOURAGED, use correct ibrav instead

     R & G space division:  proc/nbgrp/npool/nimage =      20
     Subspace diagonalization in iterative solution of the eigenvalue problem:
     a serial algorithm will be used


     Parallelization info
     --------------------
     sticks:   dense  smooth     PW     G-vecs:    dense   smooth      PW
     Min         141      56     16                 5668     1425     226
     Max         143      58     17                 5671     1428     229
     Sum        2837    1125    333               113369    28545    4553

     Using Slab Decomposition



     bravais-lattice index     =            0
     lattice parameter (alat)  =       8.4365  a.u.
     unit-cell volume          =     600.4730 (a.u.)^3
     number of atoms/cell      =            5
     number of atomic types    =            3
     number of electrons       =        38.00
     number of Kohn-Sham states=           23
     kinetic-energy cutoff     =      50.0000  Ry
     charge density cutoff     =     500.0000  Ry
     scf convergence threshold =      1.0E-07
     mixing beta               =       0.4000
     number of iterations used =            8  plain     mixing
     Exchange-correlation= SLA  PW   PSX  PSC
                           (   1   4  10   8   0   0   0)

     celldm(1)=   8.436542  celldm(2)=   0.000000  celldm(3)=   0.000000
     celldm(4)=   0.000000  celldm(5)=   0.000000  celldm(6)=   0.000000

     crystal axes: (cart. coord. in units of alat)
               a(1) = (   1.000000   0.000000   0.000000 )  
               a(2) = (   0.000000   1.000000   0.000000 )  
               a(3) = (   0.000000   0.000000   1.000000 )  

     reciprocal axes: (cart. coord. in units 2 pi/alat)
               b(1) = (  1.000000  0.000000  0.000000 )  
               b(2) = (  0.000000  1.000000  0.000000 )  
               b(3) = (  0.000000  0.000000  1.000000 )  


     PseudoPot. # 1 for Ba read from file:
     ./pseudo/Ba.pbesol-spn-kjpaw_psl.1.0.0.UPF
     MD5 check sum: f28c4a63d325c1a0d00fd3a4f19b8d73
     Pseudo is Projector augmented-wave + core cor, Zval = 10.0
     Generated using "atomic" code by A. Dal Corso  v.6.0 svn rev. 13079
     Shape of augmentation charge: PSQ
     Using radial grid of 1251 points,  7 beta functions with: 
                l(1) =   0
                l(2) =   0
                l(3) =   0
                l(4) =   1
                l(5) =   1
                l(6) =   2
                l(7) =   2
     Q(r) pseudized with 0 coefficients 


     PseudoPot. # 2 for Ca read from file:
     ./pseudo/ca_pbesol_v1.uspp.F.UPF
     MD5 check sum: 0533207b58cddeaa036efa5b63902087
     Pseudo is Ultrasoft + core correction, Zval = 10.0
     Generated by new atomic code, or converted to UPF format
     Using radial grid of  845 points,  6 beta functions with: 
                l(1) =   0
                l(2) =   0
                l(3) =   1
                l(4) =   1
                l(5) =   2
                l(6) =   2
     Q(r) pseudized with  8 coefficients,  rinner =    1.500   1.500   1.500
                                                       1.500   1.500

     PseudoPot. # 3 for O  read from file:
     ./pseudo/O.pbesol-n-kjpaw_psl.0.1.UPF
     MD5 check sum: 81d73d1479e654e5638b0319f0d6c2c7
     Pseudo is Projector augmented-wave + core cor, Zval =  6.0
     Generated using "atomic" code by A. Dal Corso  v.6.0 svn rev. 13079
     Shape of augmentation charge: BESSEL
     Using radial grid of 1095 points,  4 beta functions with: 
                l(1) =   0
                l(2) =   0
                l(3) =   1
                l(4) =   1
     Q(r) pseudized with 0 coefficients 


     atomic species   valence    mass     pseudopotential
     Ba               10.00   137.32700     Ba( 1.00)
     Ca               10.00    40.07800     Ca( 1.00)
     O                 6.00    15.99940     O ( 1.00)

     48 Sym. Ops., with inversion, found


                                    s                        frac. trans.

      isym =  1     identity                                     

 cryst.   s( 1) = (     1          0          0      )
                  (     0          1          0      )
                  (     0          0          1      )

 cart.    s( 1) = (  1.0000000  0.0000000  0.0000000 )
                  (  0.0000000  1.0000000  0.0000000 )
                  (  0.0000000  0.0000000  1.0000000 )


      isym =  2     180 deg rotation - cart. axis [0,0,1]        

 cryst.   s( 2) = (    -1          0          0      )
                  (     0         -1          0      )
                  (     0          0          1      )

 cart.    s( 2) = ( -1.0000000  0.0000000  0.0000000 )
                  (  0.0000000 -1.0000000  0.0000000 )
                  (  0.0000000  0.0000000  1.0000000 )


      isym =  3     180 deg rotation - cart. axis [0,1,0]        

 cryst.   s( 3) = (    -1          0          0      )
                  (     0          1          0      )
                  (     0          0         -1      )

 cart.    s( 3) = ( -1.0000000  0.0000000  0.0000000 )
                  (  0.0000000  1.0000000  0.0000000 )
                  (  0.0000000  0.0000000 -1.0000000 )


      isym =  4     180 deg rotation - cart. axis [1,0,0]        

 cryst.   s( 4) = (     1          0          0      )
                  (     0         -1          0      )
                  (     0          0         -1      )

 cart.    s( 4) = (  1.0000000  0.0000000  0.0000000 )
                  (  0.0000000 -1.0000000  0.0000000 )
                  (  0.0000000  0.0000000 -1.0000000 )


      isym =  5     180 deg rotation - cart. axis [1,1,0]        

 cryst.   s( 5) = (     0          1          0      )
                  (     1          0          0      )
                  (     0          0         -1      )

 cart.    s( 5) = (  0.0000000  1.0000000  0.0000000 )
                  (  1.0000000  0.0000000  0.0000000 )
                  (  0.0000000  0.0000000 -1.0000000 )


      isym =  6     180 deg rotation - cart. axis [1,-1,0]       

 cryst.   s( 6) = (     0         -1          0      )
                  (    -1          0          0      )
                  (     0          0         -1      )

 cart.    s( 6) = (  0.0000000 -1.0000000  0.0000000 )
                  ( -1.0000000  0.0000000  0.0000000 )
                  (  0.0000000  0.0000000 -1.0000000 )


      isym =  7      90 deg rotation - cart. axis [0,0,-1]       

 cryst.   s( 7) = (     0         -1          0      )
                  (     1          0          0      )
                  (     0          0          1      )

 cart.    s( 7) = (  0.0000000  1.0000000  0.0000000 )
                  ( -1.0000000  0.0000000  0.0000000 )
                  (  0.0000000  0.0000000  1.0000000 )


      isym =  8      90 deg rotation - cart. axis [0,0,1]        

 cryst.   s( 8) = (     0          1          0      )
                  (    -1          0          0      )
                  (     0          0          1      )

 cart.    s( 8) = (  0.0000000 -1.0000000  0.0000000 )
                  (  1.0000000  0.0000000  0.0000000 )
                  (  0.0000000  0.0000000  1.0000000 )


      isym =  9     180 deg rotation - cart. axis [1,0,1]        

 cryst.   s( 9) = (     0          0          1      )
                  (     0         -1          0      )
                  (     1          0          0      )

 cart.    s( 9) = (  0.0000000  0.0000000  1.0000000 )
                  (  0.0000000 -1.0000000  0.0000000 )
                  (  1.0000000  0.0000000  0.0000000 )


      isym = 10     180 deg rotation - cart. axis [-1,0,1]       

 cryst.   s(10) = (     0          0         -1      )
                  (     0         -1          0      )
                  (    -1          0          0      )

 cart.    s(10) = (  0.0000000  0.0000000 -1.0000000 )
                  (  0.0000000 -1.0000000  0.0000000 )
                  ( -1.0000000  0.0000000  0.0000000 )


      isym = 11      90 deg rotation - cart. axis [0,1,0]        

 cryst.   s(11) = (     0          0         -1      )
                  (     0          1          0      )
                  (     1          0          0      )

 cart.    s(11) = (  0.0000000  0.0000000  1.0000000 )
                  (  0.0000000  1.0000000  0.0000000 )
                  ( -1.0000000  0.0000000  0.0000000 )


      isym = 12      90 deg rotation - cart. axis [0,-1,0]       

 cryst.   s(12) = (     0          0          1      )
                  (     0          1          0      )
                  (    -1          0          0      )

 cart.    s(12) = (  0.0000000  0.0000000 -1.0000000 )
                  (  0.0000000  1.0000000  0.0000000 )
                  (  1.0000000  0.0000000  0.0000000 )


      isym = 13     180 deg rotation - cart. axis [0,1,1]        

 cryst.   s(13) = (    -1          0          0      )
                  (     0          0          1      )
                  (     0          1          0      )

 cart.    s(13) = ( -1.0000000  0.0000000  0.0000000 )
                  (  0.0000000  0.0000000  1.0000000 )
                  (  0.0000000  1.0000000  0.0000000 )


      isym = 14     180 deg rotation - cart. axis [0,1,-1]       

 cryst.   s(14) = (    -1          0          0      )
                  (     0          0         -1      )
                  (     0         -1          0      )

 cart.    s(14) = ( -1.0000000  0.0000000  0.0000000 )
                  (  0.0000000  0.0000000 -1.0000000 )
                  (  0.0000000 -1.0000000  0.0000000 )


      isym = 15      90 deg rotation - cart. axis [-1,0,0]       

 cryst.   s(15) = (     1          0          0      )
                  (     0          0         -1      )
                  (     0          1          0      )

 cart.    s(15) = (  1.0000000  0.0000000  0.0000000 )
                  (  0.0000000  0.0000000  1.0000000 )
                  (  0.0000000 -1.0000000  0.0000000 )


      isym = 16      90 deg rotation - cart. axis [1,0,0]        

 cryst.   s(16) = (     1          0          0      )
                  (     0          0          1      )
                  (     0         -1          0      )

 cart.    s(16) = (  1.0000000  0.0000000  0.0000000 )
                  (  0.0000000  0.0000000 -1.0000000 )
                  (  0.0000000  1.0000000  0.0000000 )


      isym = 17     120 deg rotation - cart. axis [-1,-1,-1]     

 cryst.   s(17) = (     0          0          1      )
                  (     1          0          0      )
                  (     0          1          0      )

 cart.    s(17) = (  0.0000000  1.0000000  0.0000000 )
                  (  0.0000000  0.0000000  1.0000000 )
                  (  1.0000000  0.0000000  0.0000000 )


      isym = 18     120 deg rotation - cart. axis [-1,1,1]       

 cryst.   s(18) = (     0          0         -1      )
                  (    -1          0          0      )
                  (     0          1          0      )

 cart.    s(18) = (  0.0000000 -1.0000000  0.0000000 )
                  (  0.0000000  0.0000000  1.0000000 )
                  ( -1.0000000  0.0000000  0.0000000 )


      isym = 19     120 deg rotation - cart. axis [1,1,-1]       

 cryst.   s(19) = (     0          0         -1      )
                  (     1          0          0      )
                  (     0         -1          0      )

 cart.    s(19) = (  0.0000000  1.0000000  0.0000000 )
                  (  0.0000000  0.0000000 -1.0000000 )
                  ( -1.0000000  0.0000000  0.0000000 )


      isym = 20     120 deg rotation - cart. axis [1,-1,1]       

 cryst.   s(20) = (     0          0          1      )
                  (    -1          0          0      )
                  (     0         -1          0      )

 cart.    s(20) = (  0.0000000 -1.0000000  0.0000000 )
                  (  0.0000000  0.0000000 -1.0000000 )
                  (  1.0000000  0.0000000  0.0000000 )


      isym = 21     120 deg rotation - cart. axis [1,1,1]        

 cryst.   s(21) = (     0          1          0      )
                  (     0          0          1      )
                  (     1          0          0      )

 cart.    s(21) = (  0.0000000  0.0000000  1.0000000 )
                  (  1.0000000  0.0000000  0.0000000 )
                  (  0.0000000  1.0000000  0.0000000 )


      isym = 22     120 deg rotation - cart. axis [-1,1,-1]      

 cryst.   s(22) = (     0         -1          0      )
                  (     0          0         -1      )
                  (     1          0          0      )

 cart.    s(22) = (  0.0000000  0.0000000  1.0000000 )
                  ( -1.0000000  0.0000000  0.0000000 )
                  (  0.0000000 -1.0000000  0.0000000 )


      isym = 23     120 deg rotation - cart. axis [1,-1,-1]      

 cryst.   s(23) = (     0         -1          0      )
                  (     0          0          1      )
                  (    -1          0          0      )

 cart.    s(23) = (  0.0000000  0.0000000 -1.0000000 )
                  ( -1.0000000  0.0000000  0.0000000 )
                  (  0.0000000  1.0000000  0.0000000 )


      isym = 24     120 deg rotation - cart. axis [-1,-1,1]      

 cryst.   s(24) = (     0          1          0      )
                  (     0          0         -1      )
                  (    -1          0          0      )

 cart.    s(24) = (  0.0000000  0.0000000 -1.0000000 )
                  (  1.0000000  0.0000000  0.0000000 )
                  (  0.0000000 -1.0000000  0.0000000 )


      isym = 25     inversion                                    

 cryst.   s(25) = (    -1          0          0      )
                  (     0         -1          0      )
                  (     0          0         -1      )

 cart.    s(25) = ( -1.0000000  0.0000000  0.0000000 )
                  (  0.0000000 -1.0000000  0.0000000 )
                  (  0.0000000  0.0000000 -1.0000000 )


      isym = 26     inv. 180 deg rotation - cart. axis [0,0,1]   

 cryst.   s(26) = (     1          0          0      )
                  (     0          1          0      )
                  (     0          0         -1      )

 cart.    s(26) = (  1.0000000  0.0000000  0.0000000 )
                  (  0.0000000  1.0000000  0.0000000 )
                  (  0.0000000  0.0000000 -1.0000000 )


      isym = 27     inv. 180 deg rotation - cart. axis [0,1,0]   

 cryst.   s(27) = (     1          0          0      )
                  (     0         -1          0      )
                  (     0          0          1      )

 cart.    s(27) = (  1.0000000  0.0000000  0.0000000 )
                  (  0.0000000 -1.0000000  0.0000000 )
                  (  0.0000000  0.0000000  1.0000000 )


      isym = 28     inv. 180 deg rotation - cart. axis [1,0,0]   

 cryst.   s(28) = (    -1          0          0      )
                  (     0          1          0      )
                  (     0          0          1      )

 cart.    s(28) = ( -1.0000000  0.0000000  0.0000000 )
                  (  0.0000000  1.0000000  0.0000000 )
                  (  0.0000000  0.0000000  1.0000000 )


      isym = 29     inv. 180 deg rotation - cart. axis [1,1,0]   

 cryst.   s(29) = (     0         -1          0      )
                  (    -1          0          0      )
                  (     0          0          1      )

 cart.    s(29) = (  0.0000000 -1.0000000  0.0000000 )
                  ( -1.0000000  0.0000000  0.0000000 )
                  (  0.0000000  0.0000000  1.0000000 )


      isym = 30     inv. 180 deg rotation - cart. axis [1,-1,0]  

 cryst.   s(30) = (     0          1          0      )
                  (     1          0          0      )
                  (     0          0          1      )

 cart.    s(30) = (  0.0000000  1.0000000  0.0000000 )
                  (  1.0000000  0.0000000  0.0000000 )
                  (  0.0000000  0.0000000  1.0000000 )


      isym = 31     inv.  90 deg rotation - cart. axis [0,0,-1]  

 cryst.   s(31) = (     0          1          0      )
                  (    -1          0          0      )
                  (     0          0         -1      )

 cart.    s(31) = (  0.0000000 -1.0000000  0.0000000 )
                  (  1.0000000  0.0000000  0.0000000 )
                  (  0.0000000  0.0000000 -1.0000000 )


      isym = 32     inv.  90 deg rotation - cart. axis [0,0,1]   

 cryst.   s(32) = (     0         -1          0      )
                  (     1          0          0      )
                  (     0          0         -1      )

 cart.    s(32) = (  0.0000000  1.0000000  0.0000000 )
                  ( -1.0000000  0.0000000  0.0000000 )
                  (  0.0000000  0.0000000 -1.0000000 )


      isym = 33     inv. 180 deg rotation - cart. axis [1,0,1]   

 cryst.   s(33) = (     0          0         -1      )
                  (     0          1          0      )
                  (    -1          0          0      )

 cart.    s(33) = (  0.0000000  0.0000000 -1.0000000 )
                  (  0.0000000  1.0000000  0.0000000 )
                  ( -1.0000000  0.0000000  0.0000000 )


      isym = 34     inv. 180 deg rotation - cart. axis [-1,0,1]  

 cryst.   s(34) = (     0          0          1      )
                  (     0          1          0      )
                  (     1          0          0      )

 cart.    s(34) = (  0.0000000  0.0000000  1.0000000 )
                  (  0.0000000  1.0000000  0.0000000 )
                  (  1.0000000  0.0000000  0.0000000 )


      isym = 35     inv.  90 deg rotation - cart. axis [0,1,0]   

 cryst.   s(35) = (     0          0          1      )
                  (     0         -1          0      )
                  (    -1          0          0      )

 cart.    s(35) = (  0.0000000  0.0000000 -1.0000000 )
                  (  0.0000000 -1.0000000  0.0000000 )
                  (  1.0000000  0.0000000  0.0000000 )


      isym = 36     inv.  90 deg rotation - cart. axis [0,-1,0]  

 cryst.   s(36) = (     0          0         -1      )
                  (     0         -1          0      )
                  (     1          0          0      )

 cart.    s(36) = (  0.0000000  0.0000000  1.0000000 )
                  (  0.0000000 -1.0000000  0.0000000 )
                  ( -1.0000000  0.0000000  0.0000000 )


      isym = 37     inv. 180 deg rotation - cart. axis [0,1,1]   

 cryst.   s(37) = (     1          0          0      )
                  (     0          0         -1      )
                  (     0         -1          0      )

 cart.    s(37) = (  1.0000000  0.0000000  0.0000000 )
                  (  0.0000000  0.0000000 -1.0000000 )
                  (  0.0000000 -1.0000000  0.0000000 )


      isym = 38     inv. 180 deg rotation - cart. axis [0,1,-1]  

 cryst.   s(38) = (     1          0          0      )
                  (     0          0          1      )
                  (     0          1          0      )

 cart.    s(38) = (  1.0000000  0.0000000  0.0000000 )
                  (  0.0000000  0.0000000  1.0000000 )
                  (  0.0000000  1.0000000  0.0000000 )


      isym = 39     inv.  90 deg rotation - cart. axis [-1,0,0]  

 cryst.   s(39) = (    -1          0          0      )
                  (     0          0          1      )
                  (     0         -1          0      )

 cart.    s(39) = ( -1.0000000  0.0000000  0.0000000 )
                  (  0.0000000  0.0000000 -1.0000000 )
                  (  0.0000000  1.0000000  0.0000000 )


      isym = 40     inv.  90 deg rotation - cart. axis [1,0,0]   

 cryst.   s(40) = (    -1          0          0      )
                  (     0          0         -1      )
                  (     0          1          0      )

 cart.    s(40) = ( -1.0000000  0.0000000  0.0000000 )
                  (  0.0000000  0.0000000  1.0000000 )
                  (  0.0000000 -1.0000000  0.0000000 )


      isym = 41     inv. 120 deg rotation - cart. axis [-1,-1,-1]

 cryst.   s(41) = (     0          0         -1      )
                  (    -1          0          0      )
                  (     0         -1          0      )

 cart.    s(41) = (  0.0000000 -1.0000000  0.0000000 )
                  (  0.0000000  0.0000000 -1.0000000 )
                  ( -1.0000000  0.0000000  0.0000000 )


      isym = 42     inv. 120 deg rotation - cart. axis [-1,1,1]  

 cryst.   s(42) = (     0          0          1      )
                  (     1          0          0      )
                  (     0         -1          0      )

 cart.    s(42) = (  0.0000000  1.0000000  0.0000000 )
                  (  0.0000000  0.0000000 -1.0000000 )
                  (  1.0000000  0.0000000  0.0000000 )


      isym = 43     inv. 120 deg rotation - cart. axis [1,1,-1]  

 cryst.   s(43) = (     0          0          1      )
                  (    -1          0          0      )
                  (     0          1          0      )

 cart.    s(43) = (  0.0000000 -1.0000000  0.0000000 )
                  (  0.0000000  0.0000000  1.0000000 )
                  (  1.0000000  0.0000000  0.0000000 )


      isym = 44     inv. 120 deg rotation - cart. axis [1,-1,1]  

 cryst.   s(44) = (     0          0         -1      )
                  (     1          0          0      )
                  (     0          1          0      )

 cart.    s(44) = (  0.0000000  1.0000000  0.0000000 )
                  (  0.0000000  0.0000000  1.0000000 )
                  ( -1.0000000  0.0000000  0.0000000 )


      isym = 45     inv. 120 deg rotation - cart. axis [1,1,1]   

 cryst.   s(45) = (     0         -1          0      )
                  (     0          0         -1      )
                  (    -1          0          0      )

 cart.    s(45) = (  0.0000000  0.0000000 -1.0000000 )
                  ( -1.0000000  0.0000000  0.0000000 )
                  (  0.0000000 -1.0000000  0.0000000 )


      isym = 46     inv. 120 deg rotation - cart. axis [-1,1,-1] 

 cryst.   s(46) = (     0          1          0      )
                  (     0          0          1      )
                  (    -1          0          0      )

 cart.    s(46) = (  0.0000000  0.0000000 -1.0000000 )
                  (  1.0000000  0.0000000  0.0000000 )
                  (  0.0000000  1.0000000  0.0000000 )


      isym = 47     inv. 120 deg rotation - cart. axis [1,-1,-1] 

 cryst.   s(47) = (     0          1          0      )
                  (     0          0         -1      )
                  (     1          0          0      )

 cart.    s(47) = (  0.0000000  0.0000000  1.0000000 )
                  (  1.0000000  0.0000000  0.0000000 )
                  (  0.0000000 -1.0000000  0.0000000 )


      isym = 48     inv. 120 deg rotation - cart. axis [-1,-1,1] 

 cryst.   s(48) = (     0         -1          0      )
                  (     0          0          1      )
                  (     1          0          0      )

 cart.    s(48) = (  0.0000000  0.0000000  1.0000000 )
                  ( -1.0000000  0.0000000  0.0000000 )
                  (  0.0000000  1.0000000  0.0000000 )


   Cartesian axes

     site n.     atom                  positions (alat units)
         1        Ba     tau(   1) = (   0.0000000   0.0000000   0.0000000  )
         2        Ca     tau(   2) = (   0.5000000   0.5000000   0.5000000  )
         3        O      tau(   3) = (   0.5000000   0.5000000   0.0000000  )
         4        O      tau(   4) = (   0.5000000   0.0000000   0.5000000  )
         5        O      tau(   5) = (   0.0000000   0.5000000   0.5000000  )

   Crystallographic axes

     site n.     atom                  positions (cryst. coord.)
         1        Ba     tau(   1) = (  0.0000000  0.0000000  0.0000000  )
         2        Ca     tau(   2) = (  0.5000000  0.5000000  0.5000000  )
         3        O      tau(   3) = (  0.5000000  0.5000000  0.0000000  )
         4        O      tau(   4) = (  0.5000000  0.0000000  0.5000000  )
         5        O      tau(   5) = (  0.0000000  0.5000000  0.5000000  )

     number of k points=    35  Marzari-Vanderbilt smearing, width (Ry)=  0.0200
                       cart. coord. in units 2pi/alat
        k(    1) = (   0.0500000   0.0500000   0.0500000), wk =   0.0160000
        k(    2) = (   0.0500000   0.0500000   0.1500000), wk =   0.0480000
        k(    3) = (   0.0500000   0.0500000   0.2500000), wk =   0.0480000
        k(    4) = (   0.0500000   0.0500000   0.3500000), wk =   0.0480000
        k(    5) = (   0.0500000   0.0500000   0.4500000), wk =   0.0480000
        k(    6) = (   0.0500000   0.1500000   0.1500000), wk =   0.0480000
        k(    7) = (   0.0500000   0.1500000   0.2500000), wk =   0.0960000
        k(    8) = (   0.0500000   0.1500000   0.3500000), wk =   0.0960000
        k(    9) = (   0.0500000   0.1500000   0.4500000), wk =   0.0960000
        k(   10) = (   0.0500000   0.2500000   0.2500000), wk =   0.0480000
        k(   11) = (   0.0500000   0.2500000   0.3500000), wk =   0.0960000
        k(   12) = (   0.0500000   0.2500000   0.4500000), wk =   0.0960000
        k(   13) = (   0.0500000   0.3500000   0.3500000), wk =   0.0480000
        k(   14) = (   0.0500000   0.3500000   0.4500000), wk =   0.0960000
        k(   15) = (   0.0500000   0.4500000   0.4500000), wk =   0.0480000
        k(   16) = (   0.1500000   0.1500000   0.1500000), wk =   0.0160000
        k(   17) = (   0.1500000   0.1500000   0.2500000), wk =   0.0480000
        k(   18) = (   0.1500000   0.1500000   0.3500000), wk =   0.0480000
        k(   19) = (   0.1500000   0.1500000   0.4500000), wk =   0.0480000
        k(   20) = (   0.1500000   0.2500000   0.2500000), wk =   0.0480000
        k(   21) = (   0.1500000   0.2500000   0.3500000), wk =   0.0960000
        k(   22) = (   0.1500000   0.2500000   0.4500000), wk =   0.0960000
        k(   23) = (   0.1500000   0.3500000   0.3500000), wk =   0.0480000
        k(   24) = (   0.1500000   0.3500000   0.4500000), wk =   0.0960000
        k(   25) = (   0.1500000   0.4500000   0.4500000), wk =   0.0480000
        k(   26) = (   0.2500000   0.2500000   0.2500000), wk =   0.0160000
        k(   27) = (   0.2500000   0.2500000   0.3500000), wk =   0.0480000
        k(   28) = (   0.2500000   0.2500000   0.4500000), wk =   0.0480000
        k(   29) = (   0.2500000   0.3500000   0.3500000), wk =   0.0480000
        k(   30) = (   0.2500000   0.3500000   0.4500000), wk =   0.0960000
        k(   31) = (   0.2500000   0.4500000   0.4500000), wk =   0.0480000
        k(   32) = (   0.3500000   0.3500000   0.3500000), wk =   0.0160000
        k(   33) = (   0.3500000   0.3500000   0.4500000), wk =   0.0480000
        k(   34) = (   0.3500000   0.4500000   0.4500000), wk =   0.0480000
        k(   35) = (   0.4500000   0.4500000   0.4500000), wk =   0.0160000

                       cryst. coord.
        k(    1) = (   0.0500000   0.0500000   0.0500000), wk =   0.0160000
        k(    2) = (   0.0500000   0.0500000   0.1500000), wk =   0.0480000
        k(    3) = (   0.0500000   0.0500000   0.2500000), wk =   0.0480000
        k(    4) = (   0.0500000   0.0500000   0.3500000), wk =   0.0480000
        k(    5) = (   0.0500000   0.0500000   0.4500000), wk =   0.0480000
        k(    6) = (   0.0500000   0.1500000   0.1500000), wk =   0.0480000
        k(    7) = (   0.0500000   0.1500000   0.2500000), wk =   0.0960000
        k(    8) = (   0.0500000   0.1500000   0.3500000), wk =   0.0960000
        k(    9) = (   0.0500000   0.1500000   0.4500000), wk =   0.0960000
        k(   10) = (   0.0500000   0.2500000   0.2500000), wk =   0.0480000
        k(   11) = (   0.0500000   0.2500000   0.3500000), wk =   0.0960000
        k(   12) = (   0.0500000   0.2500000   0.4500000), wk =   0.0960000
        k(   13) = (   0.0500000   0.3500000   0.3500000), wk =   0.0480000
        k(   14) = (   0.0500000   0.3500000   0.4500000), wk =   0.0960000
        k(   15) = (   0.0500000   0.4500000   0.4500000), wk =   0.0480000
        k(   16) = (   0.1500000   0.1500000   0.1500000), wk =   0.0160000
        k(   17) = (   0.1500000   0.1500000   0.2500000), wk =   0.0480000
        k(   18) = (   0.1500000   0.1500000   0.3500000), wk =   0.0480000
        k(   19) = (   0.1500000   0.1500000   0.4500000), wk =   0.0480000
        k(   20) = (   0.1500000   0.2500000   0.2500000), wk =   0.0480000
        k(   21) = (   0.1500000   0.2500000   0.3500000), wk =   0.0960000
        k(   22) = (   0.1500000   0.2500000   0.4500000), wk =   0.0960000
        k(   23) = (   0.1500000   0.3500000   0.3500000), wk =   0.0480000
        k(   24) = (   0.1500000   0.3500000   0.4500000), wk =   0.0960000
        k(   25) = (   0.1500000   0.4500000   0.4500000), wk =   0.0480000
        k(   26) = (   0.2500000   0.2500000   0.2500000), wk =   0.0160000
        k(   27) = (   0.2500000   0.2500000   0.3500000), wk =   0.0480000
        k(   28) = (   0.2500000   0.2500000   0.4500000), wk =   0.0480000
        k(   29) = (   0.2500000   0.3500000   0.3500000), wk =   0.0480000
        k(   30) = (   0.2500000   0.3500000   0.4500000), wk =   0.0960000
        k(   31) = (   0.2500000   0.4500000   0.4500000), wk =   0.0480000
        k(   32) = (   0.3500000   0.3500000   0.3500000), wk =   0.0160000
        k(   33) = (   0.3500000   0.3500000   0.4500000), wk =   0.0480000
        k(   34) = (   0.3500000   0.4500000   0.4500000), wk =   0.0480000
        k(   35) = (   0.4500000   0.4500000   0.4500000), wk =   0.0160000

     Dense  grid:   113369 G-vectors     FFT dimensions: (  64,  64,  64)

     Smooth grid:    28545 G-vectors     FFT dimensions: (  40,  40,  40)

     Dynamical RAM for                 wfc:       0.06 MB

     Dynamical RAM for     wfc (w. buffer):       2.26 MB

     Dynamical RAM for           str. fact:       0.26 MB

     Dynamical RAM for           local pot:       0.00 MB

     Dynamical RAM for          nlocal pot:       0.17 MB

     Dynamical RAM for                qrad:       7.18 MB

     Dynamical RAM for          rho,v,vnew:       0.63 MB

     Dynamical RAM for               rhoin:       0.21 MB

     Dynamical RAM for            rho*nmix:       1.38 MB

     Dynamical RAM for           G-vectors:       0.34 MB

     Dynamical RAM for          h,s,v(r/c):       0.10 MB

     Dynamical RAM for          <psi|beta>:       0.02 MB

     Dynamical RAM for                 psi:       0.13 MB

     Dynamical RAM for                hpsi:       0.13 MB

     Dynamical RAM for                spsi:       0.13 MB

     Dynamical RAM for      wfcinit/wfcrot:       0.16 MB

     Dynamical RAM for           addusdens:      17.99 MB

     Dynamical RAM for          addusforce:      18.39 MB

     Dynamical RAM for         addusstress:      19.03 MB

     Estimated static dynamical RAM per process >      12.02 MB

     Estimated max dynamical RAM per process >      32.43 MB

     Estimated total dynamical RAM >     648.64 MB

     Check: negative core charge=   -0.000001

     Initial potential from superposition of free atoms

     starting charge      37.9791, renormalised to      38.0000
     Starting wfcs are   27 randomized atomic wfcs
     Checking if some PAW data can be deallocated... 
       PAW data deallocated on   16 nodes for type:  1
       PAW data deallocated on    8 nodes for type:  3

     total cpu time spent up to now is        1.9 secs

     Self-consistent Calculation

     iteration #  1     ecut=    50.00 Ry     beta= 0.40
     Davidson diagonalization with overlap

---- Real-time Memory Report at c_bands before calling an iterative solver
            68 MiB given to the printing process from OS
             0 MiB allocation reported by mallinfo(arena+hblkhd)
         26095 MiB available memory on the node where the printing process lives
------------------
     ethr =  1.00E-02,  avg # of iterations =  3.0

     total cpu time spent up to now is        2.9 secs

     total energy              =    -628.10336163 Ry
     estimated scf accuracy    <       0.66510909 Ry

     iteration #  2     ecut=    50.00 Ry     beta= 0.40
     Davidson diagonalization with overlap

---- Real-time Memory Report at c_bands before calling an iterative solver
            72 MiB given to the printing process from OS
             0 MiB allocation reported by mallinfo(arena+hblkhd)
         26079 MiB available memory on the node where the printing process lives
------------------
     ethr =  1.75E-03,  avg # of iterations =  4.9

     total cpu time spent up to now is        4.6 secs

     total energy              =    -628.28597942 Ry
     estimated scf accuracy    <       0.05677863 Ry

     iteration #  3     ecut=    50.00 Ry     beta= 0.40
     Davidson diagonalization with overlap

---- Real-time Memory Report at c_bands before calling an iterative solver
            73 MiB given to the printing process from OS
             0 MiB allocation reported by mallinfo(arena+hblkhd)
         26088 MiB available memory on the node where the printing process lives
------------------
     ethr =  1.49E-04,  avg # of iterations = 10.6

     total cpu time spent up to now is        7.5 secs

     total energy              =    -628.29283372 Ry
     estimated scf accuracy    <       0.00917160 Ry

     iteration #  4     ecut=    50.00 Ry     beta= 0.40
     Davidson diagonalization with overlap

---- Real-time Memory Report at c_bands before calling an iterative solver
            73 MiB given to the printing process from OS
             0 MiB allocation reported by mallinfo(arena+hblkhd)
         26096 MiB available memory on the node where the printing process lives
------------------
     ethr =  2.41E-05,  avg # of iterations =  4.7

     total cpu time spent up to now is        8.8 secs

     total energy              =    -628.29426267 Ry
     estimated scf accuracy    <       0.00190916 Ry

     iteration #  5     ecut=    50.00 Ry     beta= 0.40
     Davidson diagonalization with overlap

---- Real-time Memory Report at c_bands before calling an iterative solver
            73 MiB given to the printing process from OS
             0 MiB allocation reported by mallinfo(arena+hblkhd)
         26083 MiB available memory on the node where the printing process lives
------------------
     ethr =  5.02E-06,  avg # of iterations =  5.0

     total cpu time spent up to now is       10.1 secs

     total energy              =    -628.29458908 Ry
     estimated scf accuracy    <       0.00011661 Ry

     iteration #  6     ecut=    50.00 Ry     beta= 0.40
     Davidson diagonalization with overlap

---- Real-time Memory Report at c_bands before calling an iterative solver
            73 MiB given to the printing process from OS
             0 MiB allocation reported by mallinfo(arena+hblkhd)
         26086 MiB available memory on the node where the printing process lives
------------------
     ethr =  3.07E-07,  avg # of iterations =  2.0

     total cpu time spent up to now is       11.2 secs

     total energy              =    -628.29461718 Ry
     estimated scf accuracy    <       0.00001324 Ry

     iteration #  7     ecut=    50.00 Ry     beta= 0.40
     Davidson diagonalization with overlap

---- Real-time Memory Report at c_bands before calling an iterative solver
            73 MiB given to the printing process from OS
             0 MiB allocation reported by mallinfo(arena+hblkhd)
         26088 MiB available memory on the node where the printing process lives
------------------
     ethr =  3.48E-08,  avg # of iterations =  4.3

     total cpu time spent up to now is       13.0 secs

     total energy              =    -628.29460529 Ry
     estimated scf accuracy    <       0.00003658 Ry

     iteration #  8     ecut=    50.00 Ry     beta= 0.40
     Davidson diagonalization with overlap

---- Real-time Memory Report at c_bands before calling an iterative solver
            73 MiB given to the printing process from OS
             0 MiB allocation reported by mallinfo(arena+hblkhd)
         26113 MiB available memory on the node where the printing process lives
------------------
     ethr =  3.48E-08,  avg # of iterations =  4.4

     total cpu time spent up to now is       14.6 secs

     total energy              =    -628.29461876 Ry
     estimated scf accuracy    <       0.00002149 Ry

     iteration #  9     ecut=    50.00 Ry     beta= 0.40
     Davidson diagonalization with overlap

---- Real-time Memory Report at c_bands before calling an iterative solver
            73 MiB given to the printing process from OS
             0 MiB allocation reported by mallinfo(arena+hblkhd)
         26159 MiB available memory on the node where the printing process lives
------------------
     ethr =  3.48E-08,  avg # of iterations =  2.0

     total cpu time spent up to now is       15.8 secs

     total energy              =    -628.29462035 Ry
     estimated scf accuracy    <       0.00000276 Ry

     iteration # 10     ecut=    50.00 Ry     beta= 0.40
     Davidson diagonalization with overlap

---- Real-time Memory Report at c_bands before calling an iterative solver
            73 MiB given to the printing process from OS
             0 MiB allocation reported by mallinfo(arena+hblkhd)
         26154 MiB available memory on the node where the printing process lives
------------------
     ethr =  7.25E-09,  avg # of iterations =  2.0

     total cpu time spent up to now is       17.0 secs

     total energy              =    -628.29462017 Ry
     estimated scf accuracy    <       0.00000099 Ry

     iteration # 11     ecut=    50.00 Ry     beta= 0.40
     Davidson diagonalization with overlap

---- Real-time Memory Report at c_bands before calling an iterative solver
            73 MiB given to the printing process from OS
             0 MiB allocation reported by mallinfo(arena+hblkhd)
         26160 MiB available memory on the node where the printing process lives
------------------
     ethr =  2.62E-09,  avg # of iterations =  3.2

     total cpu time spent up to now is       18.1 secs

     End of self-consistent calculation

          k = 0.0500 0.0500 0.0500 (  3626 PWs)   bands (ev):

   -30.3726 -20.0254 -11.7441 -11.7428 -11.7428  -9.8930  -9.5717  -9.5717
    -5.0732  -5.0732  -5.0607   4.4998   4.5681   4.5681   5.0091   5.0091
     5.0796   5.6814   5.7314   5.7314  10.3646  10.3647  10.7056

     occupation numbers 
     1.0000   1.0000   1.0000   1.0000   1.0000   1.0000   1.0000   1.0000
     1.0000   1.0000   1.0000   1.0000   1.0002   1.0002   1.0591   1.0591
     1.0796   0.0871   0.0495   0.0495   0.0000   0.0000   0.0000

          k = 0.0500 0.0500 0.1500 (  3610 PWs)   bands (ev):

   -30.3719 -20.0223 -11.9025 -11.7427 -11.7413  -9.8542  -9.5694  -9.4020
    -5.0746  -5.0681  -5.0439   4.3817   4.5466   4.5633   4.8718   4.9427
     5.0605   5.4140   5.6853   5.7013  10.5748  10.6009  11.0576

     occupation numbers 
     1.0000   1.0000   1.0000   1.0000   1.0000   1.0000   1.0000   1.0000
     1.0000   1.0000   1.0000   1.0000   1.0001   1.0002   1.0188   1.0369
     1.0752   0.6343   0.0835   0.0700   0.0000   0.0000   0.0000

          k = 0.0500 0.0500 0.2500 (  3600 PWs)   bands (ev):

   -30.3707 -20.0173 -12.1118 -11.7413 -11.7389  -9.8603  -9.5657  -9.1030
    -5.0661  -5.0598  -5.0274   4.2300   4.5035   4.5089   4.7125   4.8130
     4.9891   5.0326   5.6369   5.6548  10.9273  10.9795  11.7209

     occupation numbers 
     1.0000   1.0000   1.0000   1.0000   1.0000   1.0000   1.0000   1.0000
     1.0000   1.0000   1.0000   1.0000   1.0000   1.0001   1.0023   1.0095
     1.0522   1.0670   0.1366   0.1147   0.0000   0.0000   0.0000

          k = 0.0500 0.0500 0.3500 (  3582 PWs)   bands (ev):

   -30.3695 -20.0124 -12.2851 -11.7398 -11.7365  -9.8844  -9.5620  -8.8168
    -5.0515  -5.0513  -5.0171   4.0925   4.4200   4.4475   4.5220   4.5825
     4.8760   4.9160   5.5907   5.6109  11.3004  11.3734  12.2702

     occupation numbers 
     1.0000   1.0000   1.0000   1.0000   1.0000   1.0000   1.0000   1.0000
     1.0000   1.0000   1.0000   1.0000   1.0000   1.0000   1.0001   1.0002
     1.0197   1.0292   0.2069   0.1736   0.0000   0.0000   0.0000

          k = 0.0500 0.0500 0.4500 (  3569 PWs)   bands (ev):

   -30.3688 -20.0093 -12.3800 -11.7389 -11.7350  -9.9019  -9.5597  -8.6466
    -5.0464  -5.0378  -5.0151   4.0068   4.2780   4.3854   4.4060   4.5118
     4.8408   4.8746   5.5628   5.5851  11.5452  11.6332  12.5861

     occupation numbers 
     1.0000   1.0000   1.0000   1.0000   1.0000   1.0000   1.0000   1.0000
     1.0000   1.0000   1.0000   1.0000   1.0000   1.0000   1.0000   1.0001
     1.0133   1.0194   0.2593   0.2168   0.0000   0.0000   0.0000

          k = 0.0500 0.1500 0.1500 (  3606 PWs)   bands (ev):

   -30.3712 -20.0192 -11.9044 -11.9004 -11.7408  -9.7889  -9.4507  -9.3698
    -5.0878  -5.0656  -5.0235   4.2361   4.5333   4.5938   4.7149   4.8653
     5.1137   5.2951   5.5427   5.6616  10.7436  10.8429  11.3029

     occupation numbers 
     1.0000   1.0000   1.0000   1.0000   1.0000   1.0000   1.0000   1.0000
     1.0000   1.0000   1.0000   1.0000   1.0001   1.0003   1.0024   1.0175
     1.0833   0.9253   0.3014   0.1070   0.0000   0.0000   0.0000

          k = 0.0500 0.1500 0.2500 (  3601 PWs)   bands (ev):

   -30.3700 -20.0143 -12.1129 -11.9024 -11.7388  -9.7762  -9.4213  -9.1073
    -5.0913  -5.0581  -5.0116   4.0775   4.4854   4.5295   4.5610   4.7500
     4.9908   5.1396   5.4656   5.6082  11.0468  11.2381  11.7861

     occupation numbers 
     1.0000   1.0000   1.0000   1.0000   1.0000   1.0000   1.0000   1.0000
     1.0000   1.0000   1.0000   1.0000   1.0000   1.0001   1.0002   1.0041
     1.0528   1.0813   0.4922   0.1779   0.0000   0.0000   0.0000

          k = 0.0500 0.1500 0.3500 (  3584 PWs)   bands (ev):

   -30.3688 -20.0093 -12.2869 -11.9024 -11.7368  -9.7873  -9.4202  -8.8241
    -5.0823  -5.0500  -5.0129   3.9607   4.2776   4.4233   4.4937   4.5813
     4.8574   5.1433   5.4039   5.5578  11.4042  11.6327  12.3314

     occupation numbers 
     1.0000   1.0000   1.0000   1.0000   1.0000   1.0000   1.0000   1.0000
     1.0000   1.0000   1.0000   1.0000   1.0000   1.0000   1.0000   1.0002
     1.0161   1.0806   0.6623   0.2695   0.0000   0.0000   0.0000

          k = 0.0500 0.1500 0.4500 (  3585 PWs)   bands (ev):

   -30.3681 -20.0062 -12.3822 -11.9025 -11.7355  -9.7976  -9.4201  -8.6546
    -5.0689  -5.0422  -5.0241   3.9323   4.0388   4.3745   4.4543   4.4915
     4.8203   5.1610   5.3533   5.5279  11.6591  11.8914  12.6436

     occupation numbers 
     1.0000   1.0000   1.0000   1.0000   1.0000   1.0000   1.0000   1.0000
     1.0000   1.0000   1.0000   1.0000   1.0000   1.0000   1.0000   1.0000
     1.0104   1.0756   0.7955   0.3347   0.0000   0.0000   0.0000

          k = 0.0500 0.2500 0.2500 (  3589 PWs)   bands (ev):

   -30.3688 -20.0093 -12.1164 -12.1129 -11.7367  -9.7414  -9.1627  -9.0848
    -5.1102  -5.0538  -5.0092   3.8939   4.3190   4.4757   4.5509   4.6756
     4.8860   5.1183   5.3982   5.5439  11.2736  11.6957  11.9812

     occupation numbers 
     1.0000   1.0000   1.0000   1.0000   1.0000   1.0000   1.0000   1.0000
     1.0000   1.0000   1.0000   1.0000   1.0000   1.0000   1.0001   1.0013
     1.0218   1.0833   0.6778   0.2988   0.0000   0.0000   0.0000

          k = 0.0500 0.2500 0.3500 (  3593 PWs)   bands (ev):

   -30.3677 -20.0043 -12.2899 -12.1165 -11.7347  -9.7338  -9.1357  -8.8356
    -5.1131  -5.0567  -5.0151   3.7442   4.1111   4.4118   4.4982   4.5573
     4.8227   5.0923   5.4146   5.4827  11.5804  12.1061  12.2768

     occupation numbers 
     1.0000   1.0000   1.0000   1.0000   1.0000   1.0000   1.0000   1.0000
     1.0000   1.0000   1.0000   1.0000   1.0000   1.0000   1.0000   1.0001
     1.0107   1.0817   0.6327   0.4468   0.0000   0.0000   0.0000

          k = 0.0500 0.2500 0.4500 (  3593 PWs)   bands (ev):

   -30.3669 -20.0011 -12.3857 -12.1177 -11.7335  -9.7329  -9.1390  -8.6676
    -5.1014  -5.0729  -5.0178   3.6719   3.9273   4.3666   4.4692   4.4890
     4.8253   5.0781   5.4194   5.4463  11.8456  12.3251  12.4295

     occupation numbers 
     1.0000   1.0000   1.0000   1.0000   1.0000   1.0000   1.0000   1.0000
     1.0000   1.0000   1.0000   1.0000   1.0000   1.0000   1.0000   1.0000
     1.0111   1.0793   0.6193   0.5449   0.0000   0.0000   0.0000

          k = 0.0500 0.3500 0.3500 (  3575 PWs)   bands (ev):

   -30.3665 -19.9992 -12.2936 -12.2922 -11.7327  -9.7113  -8.8683  -8.8320
    -5.1308  -5.0805  -5.0125   3.5499   3.9596   4.3972   4.4096   4.4860
     4.8238   5.0233   5.4102   5.5264  11.7932  12.1888  12.5775

     occupation numbers 
     1.0000   1.0000   1.0000   1.0000   1.0000   1.0000   1.0000   1.0000
     1.0000   1.0000   1.0000   1.0000   1.0000   1.0000   1.0000   1.0000
     1.0109   1.0640   0.6448   0.3382   0.0000   0.0000   0.0000

          k = 0.0500 0.3500 0.4500 (  3575 PWs)   bands (ev):

   -30.3658 -19.9961 -12.3893 -12.2948 -11.7314  -9.7017  -8.8578  -8.6807
    -5.1296  -5.1088  -5.0088   3.4439   3.8279   4.3432   4.3876   4.4277
     4.8890   4.9858   5.3665   5.5804  11.9758  12.1376  12.7595

     occupation numbers 
     1.0000   1.0000   1.0000   1.0000   1.0000   1.0000   1.0000   1.0000
     1.0000   1.0000   1.0000   1.0000   1.0000   1.0000   1.0000   1.0000
     1.0225   1.0511   0.7621   0.2253   0.0000   0.0000   0.0000

          k = 0.0500 0.4500 0.4500 (  3579 PWs)   bands (ev):

   -30.3651 -19.9930 -12.3917 -12.3915 -11.7301  -9.6872  -8.6914  -8.6869
    -5.1425  -5.1349  -5.0031   3.3221   3.7324   4.2758   4.3651   4.3756
     4.9551   4.9862   5.3169   5.6580  11.8473  12.2540  12.8413

     occupation numbers 
     1.0000   1.0000   1.0000   1.0000   1.0000   1.0000   1.0000   1.0000
     1.0000   1.0000   1.0000   1.0000   1.0000   1.0000   1.0000   1.0000
     1.0408   1.0512   0.8806   0.1111   0.0000   0.0000   0.0000

          k = 0.1500 0.1500 0.1500 (  3620 PWs)   bands (ev):

   -30.3704 -20.0162 -11.9089 -11.8984 -11.8984  -9.6552  -9.3667  -9.3667
    -5.0892  -5.0892  -5.0004   4.0959   4.5638   4.5638   4.7048   4.7048
     5.1698   5.1924   5.5196   5.5196  10.9588  10.9588  11.4865

     occupation numbers 
     1.0000   1.0000   1.0000   1.0000   1.0000   1.0000   1.0000   1.0000
     1.0000   1.0000   1.0000   1.0000   1.0002   1.0002   1.0021   1.0021
     1.0720   1.0593   0.3543   0.3543   0.0000   0.0000   0.0000

          k = 0.1500 0.1500 0.2500 (  3598 PWs)   bands (ev):

   -30.3693 -20.0112 -12.1133 -11.9070 -11.8953  -9.6075  -9.3618  -9.1081
    -5.0993  -5.0915  -4.9909   3.9523   4.4597   4.5048   4.6052   4.6065
     4.9755   5.2169   5.4116   5.4789  11.2123  11.3333  11.8377

     occupation numbers 
     1.0000   1.0000   1.0000   1.0000   1.0000   1.0000   1.0000   1.0000
     1.0000   1.0000   1.0000   1.0000   1.0000   1.0001   1.0004   1.0004
     1.0476   1.0390   0.6410   0.4568   0.0000   0.0000   0.0000

          k = 0.1500 0.1500 0.3500 (  3587 PWs)   bands (ev):

   -30.3681 -20.0062 -12.2878 -11.9090 -11.8921  -9.6127  -9.3568  -8.8284
    -5.0939  -5.0908  -4.9999   3.8645   4.2779   4.3408   4.4120   4.5643
     4.9903   5.2062   5.3212   5.4333  11.5518  11.7144  12.2552

     occupation numbers 
     1.0000   1.0000   1.0000   1.0000   1.0000   1.0000   1.0000   1.0000
     1.0000   1.0000   1.0000   1.0000   1.0000   1.0000   1.0000   1.0002
     1.0526   1.0487   0.8712   0.5809   0.0000   0.0000   0.0000

          k = 0.1500 0.1500 0.4500 (  3564 PWs)   bands (ev):

   -30.3674 -20.0032 -12.3833 -11.9102 -11.8902  -9.6215  -9.3537  -8.6595
    -5.0954  -5.0706  -5.0204   3.8680   4.0014   4.2760   4.3444   4.5400
     5.0707   5.1930   5.2290   5.4028  11.8242  11.9507  12.5274

     occupation numbers 
     1.0000   1.0000   1.0000   1.0000   1.0000   1.0000   1.0000   1.0000
     1.0000   1.0000   1.0000   1.0000   1.0000   1.0000   1.0000   1.0001
     1.0777   1.0589   1.0262   0.6653   0.0000   0.0000   0.0000

          k = 0.1500 0.2500 0.2500 (  3581 PWs)   bands (ev):

   -30.3681 -20.0063 -12.1175 -12.1103 -11.8991  -9.5210  -9.1548  -9.0802
    -5.1221  -5.1030  -4.9898   3.8157   4.3098   4.4447   4.5336   4.6294
     4.8143   5.2510   5.3769   5.4034  11.4329  11.6443  11.9812

     occupation numbers 
     1.0000   1.0000   1.0000   1.0000   1.0000   1.0000   1.0000   1.0000
     1.0000   1.0000   1.0000   1.0000   1.0000   1.0000   1.0001   1.0006
     1.0097   0.9986   0.7350   0.6635   0.0000   0.0000   0.0000

          k = 0.1500 0.2500 0.3500 (  3581 PWs)   bands (ev):

   -30.3669 -20.0013 -12.2892 -12.1147 -11.8974  -9.5077  -9.1246  -8.8348
    -5.1309  -5.1093  -5.0076   3.7256   4.1178   4.3375   4.3761   4.5795
     4.8618   5.2039   5.3439   5.4073  11.7216  11.9919  12.1753

     occupation numbers 
     1.0000   1.0000   1.0000   1.0000   1.0000   1.0000   1.0000   1.0000
     1.0000   1.0000   1.0000   1.0000   1.0000   1.0000   1.0000   1.0002
     1.0169   1.0506   0.8188   0.6528   0.0000   0.0000   0.0000

          k = 0.1500 0.2500 0.4500 (  3578 PWs)   bands (ev):

   -30.3662 -19.9983 -12.3852 -12.1153 -11.8962  -9.5065  -9.1243  -8.6676
    -5.1305  -5.1073  -5.0301   3.7074   3.9097   4.2548   4.3146   4.5628
     4.9588   5.1330   5.3106   5.4175  11.9976  12.2022  12.2828

     occupation numbers 
     1.0000   1.0000   1.0000   1.0000   1.0000   1.0000   1.0000   1.0000
     1.0000   1.0000   1.0000   1.0000   1.0000   1.0000   1.0000   1.0002
     1.0420   1.0823   0.8942   0.6248   0.0000   0.0000   0.0000

          k = 0.1500 0.3500 0.3500 (  3584 PWs)   bands (ev):

   -30.3658 -19.9964 -12.2924 -12.2891 -11.8949  -9.4795  -8.8642  -8.8255
    -5.1535  -5.1283  -5.0282   3.6041   3.9560   4.3191   4.3250   4.4467
     4.8706   5.1809   5.2736   5.5270  11.8752  12.1518  12.2936

     occupation numbers 
     1.0000   1.0000   1.0000   1.0000   1.0000   1.0000   1.0000   1.0000
     1.0000   1.0000   1.0000   1.0000   1.0000   1.0000   1.0000   1.0000
     1.0186   1.0665   0.9640   0.3370   0.0000   0.0000   0.0000

          k = 0.1500 0.3500 0.4500 (  3570 PWs)   bands (ev):

   -30.3651 -19.9934 -12.3871 -12.2917 -11.8933  -9.4696  -8.8496  -8.6759
    -5.1586  -5.1433  -5.0460   3.5426   3.8153   4.2676   4.2846   4.4000
     4.9571   5.1411   5.2333   5.5841  11.9401  12.2276  12.4768

     occupation numbers 
     1.0000   1.0000   1.0000   1.0000   1.0000   1.0000   1.0000   1.0000
     1.0000   1.0000   1.0000   1.0000   1.0000   1.0000   1.0000   1.0000
     1.0414   1.0811   1.0214   0.2186   0.0000   0.0000   0.0000

          k = 0.1500 0.4500 0.4500 (  3581 PWs)   bands (ev):

   -30.3643 -19.9904 -12.3885 -12.3881 -11.8913  -9.4549  -8.6839  -8.6790
    -5.1719  -5.1668  -5.0578   3.4522   3.7249   4.2617   4.2654   4.2886
     5.0331   5.1547   5.1717   5.6654  11.7774  12.4082  12.5398

     occupation numbers 
     1.0000   1.0000   1.0000   1.0000   1.0000   1.0000   1.0000   1.0000
     1.0000   1.0000   1.0000   1.0000   1.0000   1.0000   1.0000   1.0000
     1.0671   1.0777   1.0712   0.1029   0.0000   0.0000   0.0000

          k = 0.2500 0.2500 0.2500 (  3572 PWs)   bands (ev):

   -30.3669 -20.0015 -12.1249 -12.1061 -12.1061  -9.2808  -9.0727  -9.0727
    -5.1416  -5.1416  -4.9987   3.7304   4.2954   4.2954   4.5174   4.6242
     4.6242   5.3275   5.3275   5.3813  11.7052  11.7052  12.0014

     occupation numbers 
     1.0000   1.0000   1.0000   1.0000   1.0000   1.0000   1.0000   1.0000
     1.0000   1.0000   1.0000   1.0000   1.0000   1.0000   1.0001   1.0005
     1.0005   0.8571   0.8571   0.7233   0.0000   0.0000   0.0000

          k = 0.2500 0.2500 0.3500 (  3581 PWs)   bands (ev):

   -30.3658 -19.9966 -12.2883 -12.1200 -12.1019  -9.2308  -9.0651  -8.8330
    -5.1612  -5.1571  -5.0300   3.6894   4.1379   4.1837   4.3105   4.6271
     4.6564   5.2972   5.3250   5.4384  11.9157  11.9514  12.0520

     occupation numbers 
     1.0000   1.0000   1.0000   1.0000   1.0000   1.0000   1.0000   1.0000
     1.0000   1.0000   1.0000   1.0000   1.0000   1.0000   1.0000   1.0006
     1.0009   0.9211   0.8627   0.5667   0.0000   0.0000   0.0000

          k = 0.2500 0.2500 0.4500 (  3578 PWs)   bands (ev):

   -30.3651 -19.9936 -12.3843 -12.1212 -12.0993  -9.2269  -9.0604  -8.6678
    -5.1734  -5.1520  -5.0638   3.7164   3.8829   4.1269   4.2618   4.6299
     4.7033   5.2756   5.3237   5.4596  12.0669  12.0985  12.2254

     occupation numbers 
     1.0000   1.0000   1.0000   1.0000   1.0000   1.0000   1.0000   1.0000
     1.0000   1.0000   1.0000   1.0000   1.0000   1.0000   1.0000   1.0006
     1.0020   0.9606   0.8657   0.5087   0.0000   0.0000   0.0000

          k = 0.2500 0.3500 0.3500 (  3578 PWs)   bands (ev):

   -30.3646 -19.9919 -12.2906 -12.2840 -12.1073  -9.1533  -8.8552  -8.8149
    -5.1902  -5.1861  -5.0714   3.6637   3.9839   4.1982   4.2085   4.4471
     4.6734   5.3168   5.3503   5.5370  11.8970  12.0366  12.0524

     occupation numbers 
     1.0000   1.0000   1.0000   1.0000   1.0000   1.0000   1.0000   1.0000
     1.0000   1.0000   1.0000   1.0000   1.0000   1.0000   1.0000   1.0000
     1.0012   0.8808   0.8029   0.3141   0.0000   0.0000   0.0000

          k = 0.2500 0.3500 0.4500 (  3586 PWs)   bands (ev):

   -30.3639 -19.9890 -12.3834 -12.2868 -12.1055  -9.1412  -8.8351  -8.6681
    -5.2063  -5.1934  -5.1087   3.6804   3.8025   4.1295   4.2064   4.4017
     4.6978   5.3219   5.3653   5.5943  11.8425  12.0700  12.1545

     occupation numbers 
     1.0000   1.0000   1.0000   1.0000   1.0000   1.0000   1.0000   1.0000
     1.0000   1.0000   1.0000   1.0000   1.0000   1.0000   1.0000   1.0000
     1.0018   0.8697   0.7652   0.2006   0.0000   0.0000   0.0000

          k = 0.2500 0.4500 0.4500 (  3580 PWs)   bands (ev):

   -30.3632 -19.9861 -12.3833 -12.3825 -12.1030  -9.1245  -8.6716  -8.6661
    -5.2193  -5.2181  -5.1438   3.6556   3.7041   4.1561   4.1579   4.2846
     4.7149   5.3647   5.3756   5.6779  11.6648  12.1071  12.1083

     occupation numbers 
     1.0000   1.0000   1.0000   1.0000   1.0000   1.0000   1.0000   1.0000
     1.0000   1.0000   1.0000   1.0000   1.0000   1.0000   1.0000   1.0000
     1.0024   0.7669   0.7385   0.0904   0.0000   0.0000   0.0000

          k = 0.3500 0.3500 0.3500 (  3584 PWs)   bands (ev):

   -30.3635 -19.9874 -12.2928 -12.2789 -12.2789  -8.9014  -8.8040  -8.8040
    -5.2269  -5.2269  -5.1296   3.6903   3.9857   4.1047   4.1047   4.4519
     4.4519   5.4468   5.4468   5.5790  11.8102  11.8944  11.8944

     occupation numbers 
     1.0000   1.0000   1.0000   1.0000   1.0000   1.0000   1.0000   1.0000
     1.0000   1.0000   1.0000   1.0000   1.0000   1.0000   1.0000   1.0000
     1.0000   0.5435   0.5435   0.2279   0.0000   0.0000   0.0000

          k = 0.3500 0.3500 0.4500 (  3581 PWs)   bands (ev):

   -30.3628 -19.9845 -12.3798 -12.2869 -12.2758  -8.8677  -8.7973  -8.6603
    -5.2497  -5.2395  -5.1772   3.6941   3.8564   4.0572   4.1282   4.3746
     4.4554   5.4715   5.5258   5.6275  11.7175  11.8225  11.8415

     occupation numbers 
     1.0000   1.0000   1.0000   1.0000   1.0000   1.0000   1.0000   1.0000
     1.0000   1.0000   1.0000   1.0000   1.0000   1.0000   1.0000   1.0000
     1.0000   0.4765   0.3397   0.1492   0.0000   0.0000   0.0000

          k = 0.3500 0.4500 0.4500 (  3578 PWs)   bands (ev):

   -30.3620 -19.9818 -12.3782 -12.3769 -12.2781  -8.8257  -8.6589  -8.6529
    -5.2684  -5.2668  -5.2278   3.6302   3.8730   4.0718   4.0767   4.2877
     4.4258   5.5631   5.5719   5.6913  11.5542  11.7164  11.7220

     occupation numbers 
     1.0000   1.0000   1.0000   1.0000   1.0000   1.0000   1.0000   1.0000
     1.0000   1.0000   1.0000   1.0000   1.0000   1.0000   1.0000   1.0000
     1.0000   0.2585   0.2413   0.0783   0.0000   0.0000   0.0000

          k = 0.4500 0.4500 0.4500 (  3569 PWs)   bands (ev):

   -30.3613 -19.9792 -12.3756 -12.3734 -12.3734  -8.6571  -8.6445  -8.6445
    -5.2961  -5.2961  -5.2816   3.5556   3.9917   4.0347   4.0347   4.2898
     4.2898   5.6820   5.6820   5.7060  11.4789  11.4985  11.4986

     occupation numbers 
     1.0000   1.0000   1.0000   1.0000   1.0000   1.0000   1.0000   1.0000
     1.0000   1.0000   1.0000   1.0000   1.0000   1.0000   1.0000   1.0000
     1.0000   0.0866   0.0866   0.0665   0.0000   0.0000   0.0000

     the Fermi energy is     5.5007 ev

!    total energy              =    -628.29462042 Ry
     estimated scf accuracy    <       0.00000001 Ry
     smearing contrib. (-TS)   =      -0.00194546 Ry
     internal energy E=F+TS    =    -628.29267495 Ry

     The total energy is F=E-TS. E is the sum of the following terms:
     one-electron contribution =     -64.49617084 Ry
     hartree contribution      =      52.32813488 Ry
     xc contribution           =     -53.70769093 Ry
     ewald contribution        =    -166.45952522 Ry
     one-center paw contrib.   =    -395.95742285 Ry
      -> PAW hartree energy AE =      28.32972826 Ry
      -> PAW hartree energy PS =     -28.21292378 Ry
      -> PAW xc energy AE      =    -387.73047955 Ry
      -> PAW xc energy PS      =      19.01790755 Ry
      -> total E_H with PAW    =      52.44493937 Ry
      -> total E_XC with PAW   =    -422.42026294 Ry

     convergence has been achieved in  11 iterations

     Forces acting on atoms (cartesian axes, Ry/au):

     atom    1 type  1   force =     0.00000000    0.00000000    0.00000000
     atom    2 type  2   force =     0.00000000    0.00000000    0.00000000
     atom    3 type  3   force =     0.00000000    0.00000000    0.00000000
     atom    4 type  3   force =     0.00000000    0.00000000    0.00000000
     atom    5 type  3   force =     0.00000000    0.00000000    0.00000000
     The non-local contrib.  to forces
     atom    1 type  1   force =     0.00000000    0.00000000    0.00000000
     atom    2 type  2   force =     0.00000000    0.00000000    0.00000000
     atom    3 type  3   force =     0.00000000    0.00000000    0.00000000
     atom    4 type  3   force =     0.00000000    0.00000000    0.00000000
     atom    5 type  3   force =     0.00000000    0.00000000    0.00000000
     The ionic contribution  to forces
     atom    1 type  1   force =    -0.00000000   -0.00000000   -0.00000000
     atom    2 type  2   force =     0.00000000    0.00000000    0.00000000
     atom    3 type  3   force =     0.00000000    0.00000000   -0.00000000
     atom    4 type  3   force =     0.00000000   -0.00000000    0.00000000
     atom    5 type  3   force =    -0.00000000    0.00000000    0.00000000
     The local contribution  to forces
     atom    1 type  1   force =    -0.00000000    0.00000000    0.00000000
     atom    2 type  2   force =     0.00000000    0.00000000    0.00000000
     atom    3 type  3   force =     0.00000000    0.00000000    0.00000000
     atom    4 type  3   force =     0.00000000   -0.00000000    0.00000000
     atom    5 type  3   force =     0.00000000    0.00000000    0.00000000
     The core correction contribution to forces
     atom    1 type  1   force =    -0.00000000   -0.00000000    0.00000000
     atom    2 type  2   force =    -0.00000000   -0.00000000   -0.00000000
     atom    3 type  3   force =    -0.00000000   -0.00000000    0.00000000
     atom    4 type  3   force =    -0.00000000   -0.00000000   -0.00000000
     atom    5 type  3   force =     0.00000000   -0.00000000   -0.00000000
     The Hubbard contrib.    to forces
     atom    1 type  1   force =     0.00000000    0.00000000    0.00000000
     atom    2 type  2   force =     0.00000000    0.00000000    0.00000000
     atom    3 type  3   force =     0.00000000    0.00000000    0.00000000
     atom    4 type  3   force =     0.00000000    0.00000000    0.00000000
     atom    5 type  3   force =     0.00000000    0.00000000    0.00000000
     The SCF correction term to forces
     atom    1 type  1   force =    -0.00000000   -0.00000000    0.00000000
     atom    2 type  2   force =     0.00000000   -0.00000000    0.00000000
     atom    3 type  3   force =    -0.00000000    0.00000000   -0.00000000
     atom    4 type  3   force =     0.00000000    0.00000000    0.00000000
     atom    5 type  3   force =     0.00000000   -0.00000000   -0.00000000

     Total force =     0.000000     Total SCF correction =     0.000000


     Computing stress (Cartesian axis) and pressure

          total   stress  (Ry/bohr**3)                   (kbar)     P=      -45.74
  -0.00031096   0.00000000   0.00000000          -45.74        0.00        0.00
   0.00000000  -0.00031096   0.00000000            0.00      -45.74        0.00
   0.00000000   0.00000000  -0.00031096            0.00        0.00      -45.74

     kinetic stress (kbar)  14344.56      0.00      0.00
                                0.00  14344.56      0.00
                                0.00      0.00  14344.56

     local   stress (kbar)  -6176.66     -0.00     -0.00
                               -0.00  -6176.66      0.00
                               -0.00      0.00  -6176.66

     nonloc. stress (kbar)   4547.84      0.00      0.00
                                0.00   4547.84      0.00
                                0.00      0.00   4547.84

     hartree stress (kbar)   4273.15     -0.00      0.00
                               -0.00   4273.15      0.00
                                0.00      0.00   4273.15

     exc-cor stress (kbar)    451.76     -0.00      0.00
                               -0.00    451.76     -0.00
                                0.00     -0.00    451.76

     corecor stress (kbar)  -3893.20      0.00     -0.00
                                0.00  -3893.20     -0.00
                               -0.00     -0.00  -3893.20

     ewald   stress (kbar) -13593.20     -0.00     -0.00
                               -0.00 -13593.20     -0.00
                               -0.00     -0.00 -13593.20

     hubbard stress (kbar)      0.00      0.00      0.00
                                0.00      0.00      0.00
                                0.00      0.00      0.00

     DFT-D   stress (kbar)      0.00      0.00      0.00
                                0.00      0.00      0.00
                                0.00      0.00      0.00

     XDM     stress (kbar)      0.00      0.00      0.00
                                0.00      0.00      0.00
                                0.00      0.00      0.00

     dft-nl  stress (kbar)      0.00      0.00      0.00
                                0.00      0.00      0.00
                                0.00      0.00      0.00

     TS-vdW  stress (kbar)      0.00      0.00      0.00
                                0.00      0.00      0.00
                                0.00      0.00      0.00

     MDB     stress (kbar)      0.00      0.00      0.00
                                0.00      0.00      0.00
                                0.00      0.00      0.00

     3D-RISM stress (kbar)      0.00      0.00      0.00
                                0.00      0.00      0.00
                                0.00      0.00      0.00


     Writing all to output data dir ./out/BCO.save/ :
     XML data file, charge density, pseudopotentials, collected wavefunctions

     init_run     :      1.17s CPU      1.27s WALL (       1 calls)
     electrons    :     15.41s CPU     16.23s WALL (       1 calls)
     forces       :      0.34s CPU      0.35s WALL (       1 calls)
     stress       :      0.70s CPU      0.74s WALL (       1 calls)

     Called by init_run:
     wfcinit      :      0.27s CPU      0.27s WALL (       1 calls)
     wfcinit:atom :      0.00s CPU      0.00s WALL (      35 calls)
     wfcinit:wfcr :      0.26s CPU      0.26s WALL (      35 calls)
     potinit      :      0.45s CPU      0.49s WALL (       1 calls)
     hinit0       :      0.23s CPU      0.25s WALL (       1 calls)

     Called by electrons:
     c_bands      :     11.26s CPU     11.86s WALL (      11 calls)
     sum_band     :      2.66s CPU      2.81s WALL (      11 calls)
     v_of_rho     :      0.26s CPU      0.29s WALL (      12 calls)
     v_h          :      0.03s CPU      0.03s WALL (      12 calls)
     v_xc         :      0.25s CPU      0.28s WALL (      14 calls)
     newd         :      0.89s CPU      0.92s WALL (      12 calls)
     PAW_pot      :      0.59s CPU      0.62s WALL (      12 calls)
     mix_rho      :      0.06s CPU      0.07s WALL (      11 calls)

     Called by c_bands:
     init_us_2    :      0.09s CPU      0.10s WALL (     875 calls)
     init_us_2:cp :      0.09s CPU      0.10s WALL (     875 calls)
     cegterg      :     11.00s CPU     11.56s WALL (     385 calls)

     Called by sum_band:
     sum_band:wei :      0.01s CPU      0.01s WALL (      11 calls)
     sum_band:loo :      1.82s CPU      1.92s WALL (      11 calls)
     sum_band:buf :      0.01s CPU      0.01s WALL (     385 calls)
     sum_band:ini :      0.03s CPU      0.04s WALL (     385 calls)
     sum_band:cal :      0.42s CPU      0.44s WALL (     385 calls)
     sum_band:bec :      0.01s CPU      0.01s WALL (     385 calls)
     addusdens    :      0.72s CPU      0.75s WALL (      11 calls)
                                        0.00s GPU  (      11 calls)
     addusd:skk   :      0.00s CPU      0.00s WALL (      33 calls)
                                        0.00s GPU  (      33 calls)

     Called by *egterg:
     cdiaghg      :      1.40s CPU      1.48s WALL (    2000 calls)
     cegterg:over :      1.20s CPU      1.25s WALL (    1615 calls)
     cegterg:upda :      0.26s CPU      0.27s WALL (    1615 calls)
     cegterg:last :      0.63s CPU      0.67s WALL (     878 calls)
     h_psi        :      6.26s CPU      6.60s WALL (    2035 calls)
     s_psi        :      0.55s CPU      0.56s WALL (    2035 calls)
     g_psi        :      0.02s CPU      0.02s WALL (    1615 calls)

     Called by h_psi:
     h_psi:calbec :      1.01s CPU      1.05s WALL (    2035 calls)
     vloc_psi     :      4.68s CPU      4.95s WALL (    2035 calls)
     add_vuspsi   :      0.55s CPU      0.58s WALL (    2035 calls)

     General routines
     calbec       :      1.68s CPU      1.76s WALL (    2595 calls)
     fft          :      0.44s CPU      0.47s WALL (     179 calls)
     ffts         :      0.24s CPU      0.24s WALL (      23 calls)
     fftw         :      5.18s CPU      5.49s WALL (   58865 calls)
     interpolate  :      0.25s CPU      0.25s WALL (      12 calls)

     Parallel routines

     PAW routines
     PAW_pot      :      0.59s CPU      0.62s WALL (      12 calls)
     PAW_symme    :      0.01s CPU      0.02s WALL (      23 calls)

     PWSCF        :     18.47s CPU     19.50s WALL


   This run was terminated on:  18:18:31   7Apr2025            

=------------------------------------------------------------------------------=
   JOB DONE.
=------------------------------------------------------------------------------=
