
     Program PWSCF v.7.3 starts on  8Apr2025 at 19: 7:34 

     This program is part of the open-source Quantum ESPRESSO suite
     for quantum simulation of materials; please cite
         "P. Giannozzi et al., J. Phys.:Condens. Matter 21 395502 (2009);
         "P. Giannozzi et al., J. Phys.:Condens. Matter 29 465901 (2017);
         "P. Giannozzi et al., J. Chem. Phys. 152 154105 (2020);
          URL http://www.quantum-espresso.org", 
     in publications or presentations arising from this work. More details at
     http://www.quantum-espresso.org/quote

     Parallel version (MPI), running on    20 processors

     MPI processes distributed on     1 nodes
     27990 MiB available memory on the printing compute node when the environment starts

     Waiting for input...
     Reading input from standard input

     Current dimensions of program PWSCF are:
     Max number of different atomic species (ntypx) = 10
     Max number of k-points (npk) = 120000
     Max angular momentum in pseudopotentials (lmaxx) =  4
     file Ba.pbesol-spn-kjpaw_psl.1.0.0.UPF: wavefunction(s)  5S 6S renormalized
     file O.pbesol-n-kjpaw_psl.0.1.UPF: wavefunction(s)  2P renormalized
     Message from routine setup:
     using ibrav=0 with symmetry is DISCOURAGED, use correct ibrav instead

     K-points division:     npool     =       2
     R & G space division:  proc/nbgrp/npool/nimage =      10
     Subspace diagonalization in iterative solution of the eigenvalue problem:
     a serial algorithm will be used


     Parallelization info
     --------------------
     sticks:   dense  smooth     PW     G-vecs:    dense   smooth      PW
     Min         224      88     27                 8096     2036     339
     Max         225      90     28                 8101     2039     342
     Sum        2249     889    277                80989    20377    3407

     Using Slab Decomposition



     bravais-lattice index     =            0
     lattice parameter (alat)  =       8.4365  a.u.
     unit-cell volume          =     600.4730 (a.u.)^3
     number of atoms/cell      =            5
     number of atomic types    =            3
     number of electrons       =        38.00
     number of Kohn-Sham states=           23
     kinetic-energy cutoff     =      40.0000  Ry
     charge density cutoff     =     400.0000  Ry
     scf convergence threshold =      1.0E-07
     mixing beta               =       0.4000
     number of iterations used =            8  plain     mixing
     Exchange-correlation= SLA  PW   PSX  PSC
                           (   1   4  10   8   0   0   0)

     celldm(1)=   8.436542  celldm(2)=   0.000000  celldm(3)=   0.000000
     celldm(4)=   0.000000  celldm(5)=   0.000000  celldm(6)=   0.000000

     crystal axes: (cart. coord. in units of alat)
               a(1) = (   1.000000   0.000000   0.000000 )  
               a(2) = (   0.000000   1.000000   0.000000 )  
               a(3) = (   0.000000   0.000000   1.000000 )  

     reciprocal axes: (cart. coord. in units 2 pi/alat)
               b(1) = (  1.000000  0.000000  0.000000 )  
               b(2) = (  0.000000  1.000000  0.000000 )  
               b(3) = (  0.000000  0.000000  1.000000 )  


     PseudoPot. # 1 for Ba read from file:
     ./pseudo/Ba.pbesol-spn-kjpaw_psl.1.0.0.UPF
     MD5 check sum: f28c4a63d325c1a0d00fd3a4f19b8d73
     Pseudo is Projector augmented-wave + core cor, Zval = 10.0
     Generated using "atomic" code by A. Dal Corso  v.6.0 svn rev. 13079
     Shape of augmentation charge: PSQ
     Using radial grid of 1251 points,  7 beta functions with: 
                l(1) =   0
                l(2) =   0
                l(3) =   0
                l(4) =   1
                l(5) =   1
                l(6) =   2
                l(7) =   2
     Q(r) pseudized with 0 coefficients 


     PseudoPot. # 2 for Ca read from file:
     ./pseudo/ca_pbesol_v1.uspp.F.UPF
     MD5 check sum: 0533207b58cddeaa036efa5b63902087
     Pseudo is Ultrasoft + core correction, Zval = 10.0
     Generated by new atomic code, or converted to UPF format
     Using radial grid of  845 points,  6 beta functions with: 
                l(1) =   0
                l(2) =   0
                l(3) =   1
                l(4) =   1
                l(5) =   2
                l(6) =   2
     Q(r) pseudized with  8 coefficients,  rinner =    1.500   1.500   1.500
                                                       1.500   1.500

     PseudoPot. # 3 for O  read from file:
     ./pseudo/O.pbesol-n-kjpaw_psl.0.1.UPF
     MD5 check sum: 81d73d1479e654e5638b0319f0d6c2c7
     Pseudo is Projector augmented-wave + core cor, Zval =  6.0
     Generated using "atomic" code by A. Dal Corso  v.6.0 svn rev. 13079
     Shape of augmentation charge: BESSEL
     Using radial grid of 1095 points,  4 beta functions with: 
                l(1) =   0
                l(2) =   0
                l(3) =   1
                l(4) =   1
     Q(r) pseudized with 0 coefficients 


     atomic species   valence    mass     pseudopotential
     Ba               10.00   137.32700     Ba( 1.00)
     Ca               10.00    40.07800     Ca( 1.00)
     O                 6.00    15.99940     O ( 1.00)

     48 Sym. Ops., with inversion, found


                                    s                        frac. trans.

      isym =  1     identity                                     

 cryst.   s( 1) = (     1          0          0      )
                  (     0          1          0      )
                  (     0          0          1      )

 cart.    s( 1) = (  1.0000000  0.0000000  0.0000000 )
                  (  0.0000000  1.0000000  0.0000000 )
                  (  0.0000000  0.0000000  1.0000000 )


      isym =  2     180 deg rotation - cart. axis [0,0,1]        

 cryst.   s( 2) = (    -1          0          0      )
                  (     0         -1          0      )
                  (     0          0          1      )

 cart.    s( 2) = ( -1.0000000  0.0000000  0.0000000 )
                  (  0.0000000 -1.0000000  0.0000000 )
                  (  0.0000000  0.0000000  1.0000000 )


      isym =  3     180 deg rotation - cart. axis [0,1,0]        

 cryst.   s( 3) = (    -1          0          0      )
                  (     0          1          0      )
                  (     0          0         -1      )

 cart.    s( 3) = ( -1.0000000  0.0000000  0.0000000 )
                  (  0.0000000  1.0000000  0.0000000 )
                  (  0.0000000  0.0000000 -1.0000000 )


      isym =  4     180 deg rotation - cart. axis [1,0,0]        

 cryst.   s( 4) = (     1          0          0      )
                  (     0         -1          0      )
                  (     0          0         -1      )

 cart.    s( 4) = (  1.0000000  0.0000000  0.0000000 )
                  (  0.0000000 -1.0000000  0.0000000 )
                  (  0.0000000  0.0000000 -1.0000000 )


      isym =  5     180 deg rotation - cart. axis [1,1,0]        

 cryst.   s( 5) = (     0          1          0      )
                  (     1          0          0      )
                  (     0          0         -1      )

 cart.    s( 5) = (  0.0000000  1.0000000  0.0000000 )
                  (  1.0000000  0.0000000  0.0000000 )
                  (  0.0000000  0.0000000 -1.0000000 )


      isym =  6     180 deg rotation - cart. axis [1,-1,0]       

 cryst.   s( 6) = (     0         -1          0      )
                  (    -1          0          0      )
                  (     0          0         -1      )

 cart.    s( 6) = (  0.0000000 -1.0000000  0.0000000 )
                  ( -1.0000000  0.0000000  0.0000000 )
                  (  0.0000000  0.0000000 -1.0000000 )


      isym =  7      90 deg rotation - cart. axis [0,0,-1]       

 cryst.   s( 7) = (     0         -1          0      )
                  (     1          0          0      )
                  (     0          0          1      )

 cart.    s( 7) = (  0.0000000  1.0000000  0.0000000 )
                  ( -1.0000000  0.0000000  0.0000000 )
                  (  0.0000000  0.0000000  1.0000000 )


      isym =  8      90 deg rotation - cart. axis [0,0,1]        

 cryst.   s( 8) = (     0          1          0      )
                  (    -1          0          0      )
                  (     0          0          1      )

 cart.    s( 8) = (  0.0000000 -1.0000000  0.0000000 )
                  (  1.0000000  0.0000000  0.0000000 )
                  (  0.0000000  0.0000000  1.0000000 )


      isym =  9     180 deg rotation - cart. axis [1,0,1]        

 cryst.   s( 9) = (     0          0          1      )
                  (     0         -1          0      )
                  (     1          0          0      )

 cart.    s( 9) = (  0.0000000  0.0000000  1.0000000 )
                  (  0.0000000 -1.0000000  0.0000000 )
                  (  1.0000000  0.0000000  0.0000000 )


      isym = 10     180 deg rotation - cart. axis [-1,0,1]       

 cryst.   s(10) = (     0          0         -1      )
                  (     0         -1          0      )
                  (    -1          0          0      )

 cart.    s(10) = (  0.0000000  0.0000000 -1.0000000 )
                  (  0.0000000 -1.0000000  0.0000000 )
                  ( -1.0000000  0.0000000  0.0000000 )


      isym = 11      90 deg rotation - cart. axis [0,1,0]        

 cryst.   s(11) = (     0          0         -1      )
                  (     0          1          0      )
                  (     1          0          0      )

 cart.    s(11) = (  0.0000000  0.0000000  1.0000000 )
                  (  0.0000000  1.0000000  0.0000000 )
                  ( -1.0000000  0.0000000  0.0000000 )


      isym = 12      90 deg rotation - cart. axis [0,-1,0]       

 cryst.   s(12) = (     0          0          1      )
                  (     0          1          0      )
                  (    -1          0          0      )

 cart.    s(12) = (  0.0000000  0.0000000 -1.0000000 )
                  (  0.0000000  1.0000000  0.0000000 )
                  (  1.0000000  0.0000000  0.0000000 )


      isym = 13     180 deg rotation - cart. axis [0,1,1]        

 cryst.   s(13) = (    -1          0          0      )
                  (     0          0          1      )
                  (     0          1          0      )

 cart.    s(13) = ( -1.0000000  0.0000000  0.0000000 )
                  (  0.0000000  0.0000000  1.0000000 )
                  (  0.0000000  1.0000000  0.0000000 )


      isym = 14     180 deg rotation - cart. axis [0,1,-1]       

 cryst.   s(14) = (    -1          0          0      )
                  (     0          0         -1      )
                  (     0         -1          0      )

 cart.    s(14) = ( -1.0000000  0.0000000  0.0000000 )
                  (  0.0000000  0.0000000 -1.0000000 )
                  (  0.0000000 -1.0000000  0.0000000 )


      isym = 15      90 deg rotation - cart. axis [-1,0,0]       

 cryst.   s(15) = (     1          0          0      )
                  (     0          0         -1      )
                  (     0          1          0      )

 cart.    s(15) = (  1.0000000  0.0000000  0.0000000 )
                  (  0.0000000  0.0000000  1.0000000 )
                  (  0.0000000 -1.0000000  0.0000000 )


      isym = 16      90 deg rotation - cart. axis [1,0,0]        

 cryst.   s(16) = (     1          0          0      )
                  (     0          0          1      )
                  (     0         -1          0      )

 cart.    s(16) = (  1.0000000  0.0000000  0.0000000 )
                  (  0.0000000  0.0000000 -1.0000000 )
                  (  0.0000000  1.0000000  0.0000000 )


      isym = 17     120 deg rotation - cart. axis [-1,-1,-1]     

 cryst.   s(17) = (     0          0          1      )
                  (     1          0          0      )
                  (     0          1          0      )

 cart.    s(17) = (  0.0000000  1.0000000  0.0000000 )
                  (  0.0000000  0.0000000  1.0000000 )
                  (  1.0000000  0.0000000  0.0000000 )


      isym = 18     120 deg rotation - cart. axis [-1,1,1]       

 cryst.   s(18) = (     0          0         -1      )
                  (    -1          0          0      )
                  (     0          1          0      )

 cart.    s(18) = (  0.0000000 -1.0000000  0.0000000 )
                  (  0.0000000  0.0000000  1.0000000 )
                  ( -1.0000000  0.0000000  0.0000000 )


      isym = 19     120 deg rotation - cart. axis [1,1,-1]       

 cryst.   s(19) = (     0          0         -1      )
                  (     1          0          0      )
                  (     0         -1          0      )

 cart.    s(19) = (  0.0000000  1.0000000  0.0000000 )
                  (  0.0000000  0.0000000 -1.0000000 )
                  ( -1.0000000  0.0000000  0.0000000 )


      isym = 20     120 deg rotation - cart. axis [1,-1,1]       

 cryst.   s(20) = (     0          0          1      )
                  (    -1          0          0      )
                  (     0         -1          0      )

 cart.    s(20) = (  0.0000000 -1.0000000  0.0000000 )
                  (  0.0000000  0.0000000 -1.0000000 )
                  (  1.0000000  0.0000000  0.0000000 )


      isym = 21     120 deg rotation - cart. axis [1,1,1]        

 cryst.   s(21) = (     0          1          0      )
                  (     0          0          1      )
                  (     1          0          0      )

 cart.    s(21) = (  0.0000000  0.0000000  1.0000000 )
                  (  1.0000000  0.0000000  0.0000000 )
                  (  0.0000000  1.0000000  0.0000000 )


      isym = 22     120 deg rotation - cart. axis [-1,1,-1]      

 cryst.   s(22) = (     0         -1          0      )
                  (     0          0         -1      )
                  (     1          0          0      )

 cart.    s(22) = (  0.0000000  0.0000000  1.0000000 )
                  ( -1.0000000  0.0000000  0.0000000 )
                  (  0.0000000 -1.0000000  0.0000000 )


      isym = 23     120 deg rotation - cart. axis [1,-1,-1]      

 cryst.   s(23) = (     0         -1          0      )
                  (     0          0          1      )
                  (    -1          0          0      )

 cart.    s(23) = (  0.0000000  0.0000000 -1.0000000 )
                  ( -1.0000000  0.0000000  0.0000000 )
                  (  0.0000000  1.0000000  0.0000000 )


      isym = 24     120 deg rotation - cart. axis [-1,-1,1]      

 cryst.   s(24) = (     0          1          0      )
                  (     0          0         -1      )
                  (    -1          0          0      )

 cart.    s(24) = (  0.0000000  0.0000000 -1.0000000 )
                  (  1.0000000  0.0000000  0.0000000 )
                  (  0.0000000 -1.0000000  0.0000000 )


      isym = 25     inversion                                    

 cryst.   s(25) = (    -1          0          0      )
                  (     0         -1          0      )
                  (     0          0         -1      )

 cart.    s(25) = ( -1.0000000  0.0000000  0.0000000 )
                  (  0.0000000 -1.0000000  0.0000000 )
                  (  0.0000000  0.0000000 -1.0000000 )


      isym = 26     inv. 180 deg rotation - cart. axis [0,0,1]   

 cryst.   s(26) = (     1          0          0      )
                  (     0          1          0      )
                  (     0          0         -1      )

 cart.    s(26) = (  1.0000000  0.0000000  0.0000000 )
                  (  0.0000000  1.0000000  0.0000000 )
                  (  0.0000000  0.0000000 -1.0000000 )


      isym = 27     inv. 180 deg rotation - cart. axis [0,1,0]   

 cryst.   s(27) = (     1          0          0      )
                  (     0         -1          0      )
                  (     0          0          1      )

 cart.    s(27) = (  1.0000000  0.0000000  0.0000000 )
                  (  0.0000000 -1.0000000  0.0000000 )
                  (  0.0000000  0.0000000  1.0000000 )


      isym = 28     inv. 180 deg rotation - cart. axis [1,0,0]   

 cryst.   s(28) = (    -1          0          0      )
                  (     0          1          0      )
                  (     0          0          1      )

 cart.    s(28) = ( -1.0000000  0.0000000  0.0000000 )
                  (  0.0000000  1.0000000  0.0000000 )
                  (  0.0000000  0.0000000  1.0000000 )


      isym = 29     inv. 180 deg rotation - cart. axis [1,1,0]   

 cryst.   s(29) = (     0         -1          0      )
                  (    -1          0          0      )
                  (     0          0          1      )

 cart.    s(29) = (  0.0000000 -1.0000000  0.0000000 )
                  ( -1.0000000  0.0000000  0.0000000 )
                  (  0.0000000  0.0000000  1.0000000 )


      isym = 30     inv. 180 deg rotation - cart. axis [1,-1,0]  

 cryst.   s(30) = (     0          1          0      )
                  (     1          0          0      )
                  (     0          0          1      )

 cart.    s(30) = (  0.0000000  1.0000000  0.0000000 )
                  (  1.0000000  0.0000000  0.0000000 )
                  (  0.0000000  0.0000000  1.0000000 )


      isym = 31     inv.  90 deg rotation - cart. axis [0,0,-1]  

 cryst.   s(31) = (     0          1          0      )
                  (    -1          0          0      )
                  (     0          0         -1      )

 cart.    s(31) = (  0.0000000 -1.0000000  0.0000000 )
                  (  1.0000000  0.0000000  0.0000000 )
                  (  0.0000000  0.0000000 -1.0000000 )


      isym = 32     inv.  90 deg rotation - cart. axis [0,0,1]   

 cryst.   s(32) = (     0         -1          0      )
                  (     1          0          0      )
                  (     0          0         -1      )

 cart.    s(32) = (  0.0000000  1.0000000  0.0000000 )
                  ( -1.0000000  0.0000000  0.0000000 )
                  (  0.0000000  0.0000000 -1.0000000 )


      isym = 33     inv. 180 deg rotation - cart. axis [1,0,1]   

 cryst.   s(33) = (     0          0         -1      )
                  (     0          1          0      )
                  (    -1          0          0      )

 cart.    s(33) = (  0.0000000  0.0000000 -1.0000000 )
                  (  0.0000000  1.0000000  0.0000000 )
                  ( -1.0000000  0.0000000  0.0000000 )


      isym = 34     inv. 180 deg rotation - cart. axis [-1,0,1]  

 cryst.   s(34) = (     0          0          1      )
                  (     0          1          0      )
                  (     1          0          0      )

 cart.    s(34) = (  0.0000000  0.0000000  1.0000000 )
                  (  0.0000000  1.0000000  0.0000000 )
                  (  1.0000000  0.0000000  0.0000000 )


      isym = 35     inv.  90 deg rotation - cart. axis [0,1,0]   

 cryst.   s(35) = (     0          0          1      )
                  (     0         -1          0      )
                  (    -1          0          0      )

 cart.    s(35) = (  0.0000000  0.0000000 -1.0000000 )
                  (  0.0000000 -1.0000000  0.0000000 )
                  (  1.0000000  0.0000000  0.0000000 )


      isym = 36     inv.  90 deg rotation - cart. axis [0,-1,0]  

 cryst.   s(36) = (     0          0         -1      )
                  (     0         -1          0      )
                  (     1          0          0      )

 cart.    s(36) = (  0.0000000  0.0000000  1.0000000 )
                  (  0.0000000 -1.0000000  0.0000000 )
                  ( -1.0000000  0.0000000  0.0000000 )


      isym = 37     inv. 180 deg rotation - cart. axis [0,1,1]   

 cryst.   s(37) = (     1          0          0      )
                  (     0          0         -1      )
                  (     0         -1          0      )

 cart.    s(37) = (  1.0000000  0.0000000  0.0000000 )
                  (  0.0000000  0.0000000 -1.0000000 )
                  (  0.0000000 -1.0000000  0.0000000 )


      isym = 38     inv. 180 deg rotation - cart. axis [0,1,-1]  

 cryst.   s(38) = (     1          0          0      )
                  (     0          0          1      )
                  (     0          1          0      )

 cart.    s(38) = (  1.0000000  0.0000000  0.0000000 )
                  (  0.0000000  0.0000000  1.0000000 )
                  (  0.0000000  1.0000000  0.0000000 )


      isym = 39     inv.  90 deg rotation - cart. axis [-1,0,0]  

 cryst.   s(39) = (    -1          0          0      )
                  (     0          0          1      )
                  (     0         -1          0      )

 cart.    s(39) = ( -1.0000000  0.0000000  0.0000000 )
                  (  0.0000000  0.0000000 -1.0000000 )
                  (  0.0000000  1.0000000  0.0000000 )


      isym = 40     inv.  90 deg rotation - cart. axis [1,0,0]   

 cryst.   s(40) = (    -1          0          0      )
                  (     0          0         -1      )
                  (     0          1          0      )

 cart.    s(40) = ( -1.0000000  0.0000000  0.0000000 )
                  (  0.0000000  0.0000000  1.0000000 )
                  (  0.0000000 -1.0000000  0.0000000 )


      isym = 41     inv. 120 deg rotation - cart. axis [-1,-1,-1]

 cryst.   s(41) = (     0          0         -1      )
                  (    -1          0          0      )
                  (     0         -1          0      )

 cart.    s(41) = (  0.0000000 -1.0000000  0.0000000 )
                  (  0.0000000  0.0000000 -1.0000000 )
                  ( -1.0000000  0.0000000  0.0000000 )


      isym = 42     inv. 120 deg rotation - cart. axis [-1,1,1]  

 cryst.   s(42) = (     0          0          1      )
                  (     1          0          0      )
                  (     0         -1          0      )

 cart.    s(42) = (  0.0000000  1.0000000  0.0000000 )
                  (  0.0000000  0.0000000 -1.0000000 )
                  (  1.0000000  0.0000000  0.0000000 )


      isym = 43     inv. 120 deg rotation - cart. axis [1,1,-1]  

 cryst.   s(43) = (     0          0          1      )
                  (    -1          0          0      )
                  (     0          1          0      )

 cart.    s(43) = (  0.0000000 -1.0000000  0.0000000 )
                  (  0.0000000  0.0000000  1.0000000 )
                  (  1.0000000  0.0000000  0.0000000 )


      isym = 44     inv. 120 deg rotation - cart. axis [1,-1,1]  

 cryst.   s(44) = (     0          0         -1      )
                  (     1          0          0      )
                  (     0          1          0      )

 cart.    s(44) = (  0.0000000  1.0000000  0.0000000 )
                  (  0.0000000  0.0000000  1.0000000 )
                  ( -1.0000000  0.0000000  0.0000000 )


      isym = 45     inv. 120 deg rotation - cart. axis [1,1,1]   

 cryst.   s(45) = (     0         -1          0      )
                  (     0          0         -1      )
                  (    -1          0          0      )

 cart.    s(45) = (  0.0000000  0.0000000 -1.0000000 )
                  ( -1.0000000  0.0000000  0.0000000 )
                  (  0.0000000 -1.0000000  0.0000000 )


      isym = 46     inv. 120 deg rotation - cart. axis [-1,1,-1] 

 cryst.   s(46) = (     0          1          0      )
                  (     0          0          1      )
                  (    -1          0          0      )

 cart.    s(46) = (  0.0000000  0.0000000 -1.0000000 )
                  (  1.0000000  0.0000000  0.0000000 )
                  (  0.0000000  1.0000000  0.0000000 )


      isym = 47     inv. 120 deg rotation - cart. axis [1,-1,-1] 

 cryst.   s(47) = (     0          1          0      )
                  (     0          0         -1      )
                  (     1          0          0      )

 cart.    s(47) = (  0.0000000  0.0000000  1.0000000 )
                  (  1.0000000  0.0000000  0.0000000 )
                  (  0.0000000 -1.0000000  0.0000000 )


      isym = 48     inv. 120 deg rotation - cart. axis [-1,-1,1] 

 cryst.   s(48) = (     0         -1          0      )
                  (     0          0          1      )
                  (     1          0          0      )

 cart.    s(48) = (  0.0000000  0.0000000  1.0000000 )
                  ( -1.0000000  0.0000000  0.0000000 )
                  (  0.0000000  1.0000000  0.0000000 )


   Cartesian axes

     site n.     atom                  positions (alat units)
         1        Ba     tau(   1) = (   0.0000000   0.0000000   0.0000000  )
         2        Ca     tau(   2) = (   0.5000000   0.5000000   0.5000000  )
         3        O      tau(   3) = (   0.5000000   0.5000000   0.0000000  )
         4        O      tau(   4) = (   0.5000000   0.0000000   0.5000000  )
         5        O      tau(   5) = (   0.0000000   0.5000000   0.5000000  )

   Crystallographic axes

     site n.     atom                  positions (cryst. coord.)
         1        Ba     tau(   1) = (  0.0000000  0.0000000  0.0000000  )
         2        Ca     tau(   2) = (  0.5000000  0.5000000  0.5000000  )
         3        O      tau(   3) = (  0.5000000  0.5000000  0.0000000  )
         4        O      tau(   4) = (  0.5000000  0.0000000  0.5000000  )
         5        O      tau(   5) = (  0.0000000  0.5000000  0.5000000  )

     number of k points=   220  Marzari-Vanderbilt smearing, width (Ry)=  0.0200
                       cart. coord. in units 2pi/alat
        k(    1) = (   0.0250000   0.0250000   0.0250000), wk =   0.0020000
        k(    2) = (   0.0250000   0.0250000   0.0750000), wk =   0.0060000
        k(    3) = (   0.0250000   0.0250000   0.1250000), wk =   0.0060000
        k(    4) = (   0.0250000   0.0250000   0.1750000), wk =   0.0060000
        k(    5) = (   0.0250000   0.0250000   0.2250000), wk =   0.0060000
        k(    6) = (   0.0250000   0.0250000   0.2750000), wk =   0.0060000
        k(    7) = (   0.0250000   0.0250000   0.3250000), wk =   0.0060000
        k(    8) = (   0.0250000   0.0250000   0.3750000), wk =   0.0060000
        k(    9) = (   0.0250000   0.0250000   0.4250000), wk =   0.0060000
        k(   10) = (   0.0250000   0.0250000   0.4750000), wk =   0.0060000
        k(   11) = (   0.0250000   0.0750000   0.0750000), wk =   0.0060000
        k(   12) = (   0.0250000   0.0750000   0.1250000), wk =   0.0120000
        k(   13) = (   0.0250000   0.0750000   0.1750000), wk =   0.0120000
        k(   14) = (   0.0250000   0.0750000   0.2250000), wk =   0.0120000
        k(   15) = (   0.0250000   0.0750000   0.2750000), wk =   0.0120000
        k(   16) = (   0.0250000   0.0750000   0.3250000), wk =   0.0120000
        k(   17) = (   0.0250000   0.0750000   0.3750000), wk =   0.0120000
        k(   18) = (   0.0250000   0.0750000   0.4250000), wk =   0.0120000
        k(   19) = (   0.0250000   0.0750000   0.4750000), wk =   0.0120000
        k(   20) = (   0.0250000   0.1250000   0.1250000), wk =   0.0060000
        k(   21) = (   0.0250000   0.1250000   0.1750000), wk =   0.0120000
        k(   22) = (   0.0250000   0.1250000   0.2250000), wk =   0.0120000
        k(   23) = (   0.0250000   0.1250000   0.2750000), wk =   0.0120000
        k(   24) = (   0.0250000   0.1250000   0.3250000), wk =   0.0120000
        k(   25) = (   0.0250000   0.1250000   0.3750000), wk =   0.0120000
        k(   26) = (   0.0250000   0.1250000   0.4250000), wk =   0.0120000
        k(   27) = (   0.0250000   0.1250000   0.4750000), wk =   0.0120000
        k(   28) = (   0.0250000   0.1750000   0.1750000), wk =   0.0060000
        k(   29) = (   0.0250000   0.1750000   0.2250000), wk =   0.0120000
        k(   30) = (   0.0250000   0.1750000   0.2750000), wk =   0.0120000
        k(   31) = (   0.0250000   0.1750000   0.3250000), wk =   0.0120000
        k(   32) = (   0.0250000   0.1750000   0.3750000), wk =   0.0120000
        k(   33) = (   0.0250000   0.1750000   0.4250000), wk =   0.0120000
        k(   34) = (   0.0250000   0.1750000   0.4750000), wk =   0.0120000
        k(   35) = (   0.0250000   0.2250000   0.2250000), wk =   0.0060000
        k(   36) = (   0.0250000   0.2250000   0.2750000), wk =   0.0120000
        k(   37) = (   0.0250000   0.2250000   0.3250000), wk =   0.0120000
        k(   38) = (   0.0250000   0.2250000   0.3750000), wk =   0.0120000
        k(   39) = (   0.0250000   0.2250000   0.4250000), wk =   0.0120000
        k(   40) = (   0.0250000   0.2250000   0.4750000), wk =   0.0120000
        k(   41) = (   0.0250000   0.2750000   0.2750000), wk =   0.0060000
        k(   42) = (   0.0250000   0.2750000   0.3250000), wk =   0.0120000
        k(   43) = (   0.0250000   0.2750000   0.3750000), wk =   0.0120000
        k(   44) = (   0.0250000   0.2750000   0.4250000), wk =   0.0120000
        k(   45) = (   0.0250000   0.2750000   0.4750000), wk =   0.0120000
        k(   46) = (   0.0250000   0.3250000   0.3250000), wk =   0.0060000
        k(   47) = (   0.0250000   0.3250000   0.3750000), wk =   0.0120000
        k(   48) = (   0.0250000   0.3250000   0.4250000), wk =   0.0120000
        k(   49) = (   0.0250000   0.3250000   0.4750000), wk =   0.0120000
        k(   50) = (   0.0250000   0.3750000   0.3750000), wk =   0.0060000
        k(   51) = (   0.0250000   0.3750000   0.4250000), wk =   0.0120000
        k(   52) = (   0.0250000   0.3750000   0.4750000), wk =   0.0120000
        k(   53) = (   0.0250000   0.4250000   0.4250000), wk =   0.0060000
        k(   54) = (   0.0250000   0.4250000   0.4750000), wk =   0.0120000
        k(   55) = (   0.0250000   0.4750000   0.4750000), wk =   0.0060000
        k(   56) = (   0.0750000   0.0750000   0.0750000), wk =   0.0020000
        k(   57) = (   0.0750000   0.0750000   0.1250000), wk =   0.0060000
        k(   58) = (   0.0750000   0.0750000   0.1750000), wk =   0.0060000
        k(   59) = (   0.0750000   0.0750000   0.2250000), wk =   0.0060000
        k(   60) = (   0.0750000   0.0750000   0.2750000), wk =   0.0060000
        k(   61) = (   0.0750000   0.0750000   0.3250000), wk =   0.0060000
        k(   62) = (   0.0750000   0.0750000   0.3750000), wk =   0.0060000
        k(   63) = (   0.0750000   0.0750000   0.4250000), wk =   0.0060000
        k(   64) = (   0.0750000   0.0750000   0.4750000), wk =   0.0060000
        k(   65) = (   0.0750000   0.1250000   0.1250000), wk =   0.0060000
        k(   66) = (   0.0750000   0.1250000   0.1750000), wk =   0.0120000
        k(   67) = (   0.0750000   0.1250000   0.2250000), wk =   0.0120000
        k(   68) = (   0.0750000   0.1250000   0.2750000), wk =   0.0120000
        k(   69) = (   0.0750000   0.1250000   0.3250000), wk =   0.0120000
        k(   70) = (   0.0750000   0.1250000   0.3750000), wk =   0.0120000
        k(   71) = (   0.0750000   0.1250000   0.4250000), wk =   0.0120000
        k(   72) = (   0.0750000   0.1250000   0.4750000), wk =   0.0120000
        k(   73) = (   0.0750000   0.1750000   0.1750000), wk =   0.0060000
        k(   74) = (   0.0750000   0.1750000   0.2250000), wk =   0.0120000
        k(   75) = (   0.0750000   0.1750000   0.2750000), wk =   0.0120000
        k(   76) = (   0.0750000   0.1750000   0.3250000), wk =   0.0120000
        k(   77) = (   0.0750000   0.1750000   0.3750000), wk =   0.0120000
        k(   78) = (   0.0750000   0.1750000   0.4250000), wk =   0.0120000
        k(   79) = (   0.0750000   0.1750000   0.4750000), wk =   0.0120000
        k(   80) = (   0.0750000   0.2250000   0.2250000), wk =   0.0060000
        k(   81) = (   0.0750000   0.2250000   0.2750000), wk =   0.0120000
        k(   82) = (   0.0750000   0.2250000   0.3250000), wk =   0.0120000
        k(   83) = (   0.0750000   0.2250000   0.3750000), wk =   0.0120000
        k(   84) = (   0.0750000   0.2250000   0.4250000), wk =   0.0120000
        k(   85) = (   0.0750000   0.2250000   0.4750000), wk =   0.0120000
        k(   86) = (   0.0750000   0.2750000   0.2750000), wk =   0.0060000
        k(   87) = (   0.0750000   0.2750000   0.3250000), wk =   0.0120000
        k(   88) = (   0.0750000   0.2750000   0.3750000), wk =   0.0120000
        k(   89) = (   0.0750000   0.2750000   0.4250000), wk =   0.0120000
        k(   90) = (   0.0750000   0.2750000   0.4750000), wk =   0.0120000
        k(   91) = (   0.0750000   0.3250000   0.3250000), wk =   0.0060000
        k(   92) = (   0.0750000   0.3250000   0.3750000), wk =   0.0120000
        k(   93) = (   0.0750000   0.3250000   0.4250000), wk =   0.0120000
        k(   94) = (   0.0750000   0.3250000   0.4750000), wk =   0.0120000
        k(   95) = (   0.0750000   0.3750000   0.3750000), wk =   0.0060000
        k(   96) = (   0.0750000   0.3750000   0.4250000), wk =   0.0120000
        k(   97) = (   0.0750000   0.3750000   0.4750000), wk =   0.0120000
        k(   98) = (   0.0750000   0.4250000   0.4250000), wk =   0.0060000
        k(   99) = (   0.0750000   0.4250000   0.4750000), wk =   0.0120000
        k(  100) = (   0.0750000   0.4750000   0.4750000), wk =   0.0060000
        k(  101) = (   0.1250000   0.1250000   0.1250000), wk =   0.0020000
        k(  102) = (   0.1250000   0.1250000   0.1750000), wk =   0.0060000
        k(  103) = (   0.1250000   0.1250000   0.2250000), wk =   0.0060000
        k(  104) = (   0.1250000   0.1250000   0.2750000), wk =   0.0060000
        k(  105) = (   0.1250000   0.1250000   0.3250000), wk =   0.0060000
        k(  106) = (   0.1250000   0.1250000   0.3750000), wk =   0.0060000
        k(  107) = (   0.1250000   0.1250000   0.4250000), wk =   0.0060000
        k(  108) = (   0.1250000   0.1250000   0.4750000), wk =   0.0060000
        k(  109) = (   0.1250000   0.1750000   0.1750000), wk =   0.0060000
        k(  110) = (   0.1250000   0.1750000   0.2250000), wk =   0.0120000
        k(  111) = (   0.1250000   0.1750000   0.2750000), wk =   0.0120000
        k(  112) = (   0.1250000   0.1750000   0.3250000), wk =   0.0120000
        k(  113) = (   0.1250000   0.1750000   0.3750000), wk =   0.0120000
        k(  114) = (   0.1250000   0.1750000   0.4250000), wk =   0.0120000
        k(  115) = (   0.1250000   0.1750000   0.4750000), wk =   0.0120000
        k(  116) = (   0.1250000   0.2250000   0.2250000), wk =   0.0060000
        k(  117) = (   0.1250000   0.2250000   0.2750000), wk =   0.0120000
        k(  118) = (   0.1250000   0.2250000   0.3250000), wk =   0.0120000
        k(  119) = (   0.1250000   0.2250000   0.3750000), wk =   0.0120000
        k(  120) = (   0.1250000   0.2250000   0.4250000), wk =   0.0120000
        k(  121) = (   0.1250000   0.2250000   0.4750000), wk =   0.0120000
        k(  122) = (   0.1250000   0.2750000   0.2750000), wk =   0.0060000
        k(  123) = (   0.1250000   0.2750000   0.3250000), wk =   0.0120000
        k(  124) = (   0.1250000   0.2750000   0.3750000), wk =   0.0120000
        k(  125) = (   0.1250000   0.2750000   0.4250000), wk =   0.0120000
        k(  126) = (   0.1250000   0.2750000   0.4750000), wk =   0.0120000
        k(  127) = (   0.1250000   0.3250000   0.3250000), wk =   0.0060000
        k(  128) = (   0.1250000   0.3250000   0.3750000), wk =   0.0120000
        k(  129) = (   0.1250000   0.3250000   0.4250000), wk =   0.0120000
        k(  130) = (   0.1250000   0.3250000   0.4750000), wk =   0.0120000
        k(  131) = (   0.1250000   0.3750000   0.3750000), wk =   0.0060000
        k(  132) = (   0.1250000   0.3750000   0.4250000), wk =   0.0120000
        k(  133) = (   0.1250000   0.3750000   0.4750000), wk =   0.0120000
        k(  134) = (   0.1250000   0.4250000   0.4250000), wk =   0.0060000
        k(  135) = (   0.1250000   0.4250000   0.4750000), wk =   0.0120000
        k(  136) = (   0.1250000   0.4750000   0.4750000), wk =   0.0060000
        k(  137) = (   0.1750000   0.1750000   0.1750000), wk =   0.0020000
        k(  138) = (   0.1750000   0.1750000   0.2250000), wk =   0.0060000
        k(  139) = (   0.1750000   0.1750000   0.2750000), wk =   0.0060000
        k(  140) = (   0.1750000   0.1750000   0.3250000), wk =   0.0060000
        k(  141) = (   0.1750000   0.1750000   0.3750000), wk =   0.0060000
        k(  142) = (   0.1750000   0.1750000   0.4250000), wk =   0.0060000
        k(  143) = (   0.1750000   0.1750000   0.4750000), wk =   0.0060000
        k(  144) = (   0.1750000   0.2250000   0.2250000), wk =   0.0060000
        k(  145) = (   0.1750000   0.2250000   0.2750000), wk =   0.0120000
        k(  146) = (   0.1750000   0.2250000   0.3250000), wk =   0.0120000
        k(  147) = (   0.1750000   0.2250000   0.3750000), wk =   0.0120000
        k(  148) = (   0.1750000   0.2250000   0.4250000), wk =   0.0120000
        k(  149) = (   0.1750000   0.2250000   0.4750000), wk =   0.0120000
        k(  150) = (   0.1750000   0.2750000   0.2750000), wk =   0.0060000
        k(  151) = (   0.1750000   0.2750000   0.3250000), wk =   0.0120000
        k(  152) = (   0.1750000   0.2750000   0.3750000), wk =   0.0120000
        k(  153) = (   0.1750000   0.2750000   0.4250000), wk =   0.0120000
        k(  154) = (   0.1750000   0.2750000   0.4750000), wk =   0.0120000
        k(  155) = (   0.1750000   0.3250000   0.3250000), wk =   0.0060000
        k(  156) = (   0.1750000   0.3250000   0.3750000), wk =   0.0120000
        k(  157) = (   0.1750000   0.3250000   0.4250000), wk =   0.0120000
        k(  158) = (   0.1750000   0.3250000   0.4750000), wk =   0.0120000
        k(  159) = (   0.1750000   0.3750000   0.3750000), wk =   0.0060000
        k(  160) = (   0.1750000   0.3750000   0.4250000), wk =   0.0120000
        k(  161) = (   0.1750000   0.3750000   0.4750000), wk =   0.0120000
        k(  162) = (   0.1750000   0.4250000   0.4250000), wk =   0.0060000
        k(  163) = (   0.1750000   0.4250000   0.4750000), wk =   0.0120000
        k(  164) = (   0.1750000   0.4750000   0.4750000), wk =   0.0060000
        k(  165) = (   0.2250000   0.2250000   0.2250000), wk =   0.0020000
        k(  166) = (   0.2250000   0.2250000   0.2750000), wk =   0.0060000
        k(  167) = (   0.2250000   0.2250000   0.3250000), wk =   0.0060000
        k(  168) = (   0.2250000   0.2250000   0.3750000), wk =   0.0060000
        k(  169) = (   0.2250000   0.2250000   0.4250000), wk =   0.0060000
        k(  170) = (   0.2250000   0.2250000   0.4750000), wk =   0.0060000
        k(  171) = (   0.2250000   0.2750000   0.2750000), wk =   0.0060000
        k(  172) = (   0.2250000   0.2750000   0.3250000), wk =   0.0120000
        k(  173) = (   0.2250000   0.2750000   0.3750000), wk =   0.0120000
        k(  174) = (   0.2250000   0.2750000   0.4250000), wk =   0.0120000
        k(  175) = (   0.2250000   0.2750000   0.4750000), wk =   0.0120000
        k(  176) = (   0.2250000   0.3250000   0.3250000), wk =   0.0060000
        k(  177) = (   0.2250000   0.3250000   0.3750000), wk =   0.0120000
        k(  178) = (   0.2250000   0.3250000   0.4250000), wk =   0.0120000
        k(  179) = (   0.2250000   0.3250000   0.4750000), wk =   0.0120000
        k(  180) = (   0.2250000   0.3750000   0.3750000), wk =   0.0060000
        k(  181) = (   0.2250000   0.3750000   0.4250000), wk =   0.0120000
        k(  182) = (   0.2250000   0.3750000   0.4750000), wk =   0.0120000
        k(  183) = (   0.2250000   0.4250000   0.4250000), wk =   0.0060000
        k(  184) = (   0.2250000   0.4250000   0.4750000), wk =   0.0120000
        k(  185) = (   0.2250000   0.4750000   0.4750000), wk =   0.0060000
        k(  186) = (   0.2750000   0.2750000   0.2750000), wk =   0.0020000
        k(  187) = (   0.2750000   0.2750000   0.3250000), wk =   0.0060000
        k(  188) = (   0.2750000   0.2750000   0.3750000), wk =   0.0060000
        k(  189) = (   0.2750000   0.2750000   0.4250000), wk =   0.0060000
        k(  190) = (   0.2750000   0.2750000   0.4750000), wk =   0.0060000
        k(  191) = (   0.2750000   0.3250000   0.3250000), wk =   0.0060000
        k(  192) = (   0.2750000   0.3250000   0.3750000), wk =   0.0120000
        k(  193) = (   0.2750000   0.3250000   0.4250000), wk =   0.0120000
        k(  194) = (   0.2750000   0.3250000   0.4750000), wk =   0.0120000
        k(  195) = (   0.2750000   0.3750000   0.3750000), wk =   0.0060000
        k(  196) = (   0.2750000   0.3750000   0.4250000), wk =   0.0120000
        k(  197) = (   0.2750000   0.3750000   0.4750000), wk =   0.0120000
        k(  198) = (   0.2750000   0.4250000   0.4250000), wk =   0.0060000
        k(  199) = (   0.2750000   0.4250000   0.4750000), wk =   0.0120000
        k(  200) = (   0.2750000   0.4750000   0.4750000), wk =   0.0060000
        k(  201) = (   0.3250000   0.3250000   0.3250000), wk =   0.0020000
        k(  202) = (   0.3250000   0.3250000   0.3750000), wk =   0.0060000
        k(  203) = (   0.3250000   0.3250000   0.4250000), wk =   0.0060000
        k(  204) = (   0.3250000   0.3250000   0.4750000), wk =   0.0060000
        k(  205) = (   0.3250000   0.3750000   0.3750000), wk =   0.0060000
        k(  206) = (   0.3250000   0.3750000   0.4250000), wk =   0.0120000
        k(  207) = (   0.3250000   0.3750000   0.4750000), wk =   0.0120000
        k(  208) = (   0.3250000   0.4250000   0.4250000), wk =   0.0060000
        k(  209) = (   0.3250000   0.4250000   0.4750000), wk =   0.0120000
        k(  210) = (   0.3250000   0.4750000   0.4750000), wk =   0.0060000
        k(  211) = (   0.3750000   0.3750000   0.3750000), wk =   0.0020000
        k(  212) = (   0.3750000   0.3750000   0.4250000), wk =   0.0060000
        k(  213) = (   0.3750000   0.3750000   0.4750000), wk =   0.0060000
        k(  214) = (   0.3750000   0.4250000   0.4250000), wk =   0.0060000
        k(  215) = (   0.3750000   0.4250000   0.4750000), wk =   0.0120000
        k(  216) = (   0.3750000   0.4750000   0.4750000), wk =   0.0060000
        k(  217) = (   0.4250000   0.4250000   0.4250000), wk =   0.0020000
        k(  218) = (   0.4250000   0.4250000   0.4750000), wk =   0.0060000
        k(  219) = (   0.4250000   0.4750000   0.4750000), wk =   0.0060000
        k(  220) = (   0.4750000   0.4750000   0.4750000), wk =   0.0020000

                       cryst. coord.
        k(    1) = (   0.0250000   0.0250000   0.0250000), wk =   0.0020000
        k(    2) = (   0.0250000   0.0250000   0.0750000), wk =   0.0060000
        k(    3) = (   0.0250000   0.0250000   0.1250000), wk =   0.0060000
        k(    4) = (   0.0250000   0.0250000   0.1750000), wk =   0.0060000
        k(    5) = (   0.0250000   0.0250000   0.2250000), wk =   0.0060000
        k(    6) = (   0.0250000   0.0250000   0.2750000), wk =   0.0060000
        k(    7) = (   0.0250000   0.0250000   0.3250000), wk =   0.0060000
        k(    8) = (   0.0250000   0.0250000   0.3750000), wk =   0.0060000
        k(    9) = (   0.0250000   0.0250000   0.4250000), wk =   0.0060000
        k(   10) = (   0.0250000   0.0250000   0.4750000), wk =   0.0060000
        k(   11) = (   0.0250000   0.0750000   0.0750000), wk =   0.0060000
        k(   12) = (   0.0250000   0.0750000   0.1250000), wk =   0.0120000
        k(   13) = (   0.0250000   0.0750000   0.1750000), wk =   0.0120000
        k(   14) = (   0.0250000   0.0750000   0.2250000), wk =   0.0120000
        k(   15) = (   0.0250000   0.0750000   0.2750000), wk =   0.0120000
        k(   16) = (   0.0250000   0.0750000   0.3250000), wk =   0.0120000
        k(   17) = (   0.0250000   0.0750000   0.3750000), wk =   0.0120000
        k(   18) = (   0.0250000   0.0750000   0.4250000), wk =   0.0120000
        k(   19) = (   0.0250000   0.0750000   0.4750000), wk =   0.0120000
        k(   20) = (   0.0250000   0.1250000   0.1250000), wk =   0.0060000
        k(   21) = (   0.0250000   0.1250000   0.1750000), wk =   0.0120000
        k(   22) = (   0.0250000   0.1250000   0.2250000), wk =   0.0120000
        k(   23) = (   0.0250000   0.1250000   0.2750000), wk =   0.0120000
        k(   24) = (   0.0250000   0.1250000   0.3250000), wk =   0.0120000
        k(   25) = (   0.0250000   0.1250000   0.3750000), wk =   0.0120000
        k(   26) = (   0.0250000   0.1250000   0.4250000), wk =   0.0120000
        k(   27) = (   0.0250000   0.1250000   0.4750000), wk =   0.0120000
        k(   28) = (   0.0250000   0.1750000   0.1750000), wk =   0.0060000
        k(   29) = (   0.0250000   0.1750000   0.2250000), wk =   0.0120000
        k(   30) = (   0.0250000   0.1750000   0.2750000), wk =   0.0120000
        k(   31) = (   0.0250000   0.1750000   0.3250000), wk =   0.0120000
        k(   32) = (   0.0250000   0.1750000   0.3750000), wk =   0.0120000
        k(   33) = (   0.0250000   0.1750000   0.4250000), wk =   0.0120000
        k(   34) = (   0.0250000   0.1750000   0.4750000), wk =   0.0120000
        k(   35) = (   0.0250000   0.2250000   0.2250000), wk =   0.0060000
        k(   36) = (   0.0250000   0.2250000   0.2750000), wk =   0.0120000
        k(   37) = (   0.0250000   0.2250000   0.3250000), wk =   0.0120000
        k(   38) = (   0.0250000   0.2250000   0.3750000), wk =   0.0120000
        k(   39) = (   0.0250000   0.2250000   0.4250000), wk =   0.0120000
        k(   40) = (   0.0250000   0.2250000   0.4750000), wk =   0.0120000
        k(   41) = (   0.0250000   0.2750000   0.2750000), wk =   0.0060000
        k(   42) = (   0.0250000   0.2750000   0.3250000), wk =   0.0120000
        k(   43) = (   0.0250000   0.2750000   0.3750000), wk =   0.0120000
        k(   44) = (   0.0250000   0.2750000   0.4250000), wk =   0.0120000
        k(   45) = (   0.0250000   0.2750000   0.4750000), wk =   0.0120000
        k(   46) = (   0.0250000   0.3250000   0.3250000), wk =   0.0060000
        k(   47) = (   0.0250000   0.3250000   0.3750000), wk =   0.0120000
        k(   48) = (   0.0250000   0.3250000   0.4250000), wk =   0.0120000
        k(   49) = (   0.0250000   0.3250000   0.4750000), wk =   0.0120000
        k(   50) = (   0.0250000   0.3750000   0.3750000), wk =   0.0060000
        k(   51) = (   0.0250000   0.3750000   0.4250000), wk =   0.0120000
        k(   52) = (   0.0250000   0.3750000   0.4750000), wk =   0.0120000
        k(   53) = (   0.0250000   0.4250000   0.4250000), wk =   0.0060000
        k(   54) = (   0.0250000   0.4250000   0.4750000), wk =   0.0120000
        k(   55) = (   0.0250000   0.4750000   0.4750000), wk =   0.0060000
        k(   56) = (   0.0750000   0.0750000   0.0750000), wk =   0.0020000
        k(   57) = (   0.0750000   0.0750000   0.1250000), wk =   0.0060000
        k(   58) = (   0.0750000   0.0750000   0.1750000), wk =   0.0060000
        k(   59) = (   0.0750000   0.0750000   0.2250000), wk =   0.0060000
        k(   60) = (   0.0750000   0.0750000   0.2750000), wk =   0.0060000
        k(   61) = (   0.0750000   0.0750000   0.3250000), wk =   0.0060000
        k(   62) = (   0.0750000   0.0750000   0.3750000), wk =   0.0060000
        k(   63) = (   0.0750000   0.0750000   0.4250000), wk =   0.0060000
        k(   64) = (   0.0750000   0.0750000   0.4750000), wk =   0.0060000
        k(   65) = (   0.0750000   0.1250000   0.1250000), wk =   0.0060000
        k(   66) = (   0.0750000   0.1250000   0.1750000), wk =   0.0120000
        k(   67) = (   0.0750000   0.1250000   0.2250000), wk =   0.0120000
        k(   68) = (   0.0750000   0.1250000   0.2750000), wk =   0.0120000
        k(   69) = (   0.0750000   0.1250000   0.3250000), wk =   0.0120000
        k(   70) = (   0.0750000   0.1250000   0.3750000), wk =   0.0120000
        k(   71) = (   0.0750000   0.1250000   0.4250000), wk =   0.0120000
        k(   72) = (   0.0750000   0.1250000   0.4750000), wk =   0.0120000
        k(   73) = (   0.0750000   0.1750000   0.1750000), wk =   0.0060000
        k(   74) = (   0.0750000   0.1750000   0.2250000), wk =   0.0120000
        k(   75) = (   0.0750000   0.1750000   0.2750000), wk =   0.0120000
        k(   76) = (   0.0750000   0.1750000   0.3250000), wk =   0.0120000
        k(   77) = (   0.0750000   0.1750000   0.3750000), wk =   0.0120000
        k(   78) = (   0.0750000   0.1750000   0.4250000), wk =   0.0120000
        k(   79) = (   0.0750000   0.1750000   0.4750000), wk =   0.0120000
        k(   80) = (   0.0750000   0.2250000   0.2250000), wk =   0.0060000
        k(   81) = (   0.0750000   0.2250000   0.2750000), wk =   0.0120000
        k(   82) = (   0.0750000   0.2250000   0.3250000), wk =   0.0120000
        k(   83) = (   0.0750000   0.2250000   0.3750000), wk =   0.0120000
        k(   84) = (   0.0750000   0.2250000   0.4250000), wk =   0.0120000
        k(   85) = (   0.0750000   0.2250000   0.4750000), wk =   0.0120000
        k(   86) = (   0.0750000   0.2750000   0.2750000), wk =   0.0060000
        k(   87) = (   0.0750000   0.2750000   0.3250000), wk =   0.0120000
        k(   88) = (   0.0750000   0.2750000   0.3750000), wk =   0.0120000
        k(   89) = (   0.0750000   0.2750000   0.4250000), wk =   0.0120000
        k(   90) = (   0.0750000   0.2750000   0.4750000), wk =   0.0120000
        k(   91) = (   0.0750000   0.3250000   0.3250000), wk =   0.0060000
        k(   92) = (   0.0750000   0.3250000   0.3750000), wk =   0.0120000
        k(   93) = (   0.0750000   0.3250000   0.4250000), wk =   0.0120000
        k(   94) = (   0.0750000   0.3250000   0.4750000), wk =   0.0120000
        k(   95) = (   0.0750000   0.3750000   0.3750000), wk =   0.0060000
        k(   96) = (   0.0750000   0.3750000   0.4250000), wk =   0.0120000
        k(   97) = (   0.0750000   0.3750000   0.4750000), wk =   0.0120000
        k(   98) = (   0.0750000   0.4250000   0.4250000), wk =   0.0060000
        k(   99) = (   0.0750000   0.4250000   0.4750000), wk =   0.0120000
        k(  100) = (   0.0750000   0.4750000   0.4750000), wk =   0.0060000
        k(  101) = (   0.1250000   0.1250000   0.1250000), wk =   0.0020000
        k(  102) = (   0.1250000   0.1250000   0.1750000), wk =   0.0060000
        k(  103) = (   0.1250000   0.1250000   0.2250000), wk =   0.0060000
        k(  104) = (   0.1250000   0.1250000   0.2750000), wk =   0.0060000
        k(  105) = (   0.1250000   0.1250000   0.3250000), wk =   0.0060000
        k(  106) = (   0.1250000   0.1250000   0.3750000), wk =   0.0060000
        k(  107) = (   0.1250000   0.1250000   0.4250000), wk =   0.0060000
        k(  108) = (   0.1250000   0.1250000   0.4750000), wk =   0.0060000
        k(  109) = (   0.1250000   0.1750000   0.1750000), wk =   0.0060000
        k(  110) = (   0.1250000   0.1750000   0.2250000), wk =   0.0120000
        k(  111) = (   0.1250000   0.1750000   0.2750000), wk =   0.0120000
        k(  112) = (   0.1250000   0.1750000   0.3250000), wk =   0.0120000
        k(  113) = (   0.1250000   0.1750000   0.3750000), wk =   0.0120000
        k(  114) = (   0.1250000   0.1750000   0.4250000), wk =   0.0120000
        k(  115) = (   0.1250000   0.1750000   0.4750000), wk =   0.0120000
        k(  116) = (   0.1250000   0.2250000   0.2250000), wk =   0.0060000
        k(  117) = (   0.1250000   0.2250000   0.2750000), wk =   0.0120000
        k(  118) = (   0.1250000   0.2250000   0.3250000), wk =   0.0120000
        k(  119) = (   0.1250000   0.2250000   0.3750000), wk =   0.0120000
        k(  120) = (   0.1250000   0.2250000   0.4250000), wk =   0.0120000
        k(  121) = (   0.1250000   0.2250000   0.4750000), wk =   0.0120000
        k(  122) = (   0.1250000   0.2750000   0.2750000), wk =   0.0060000
        k(  123) = (   0.1250000   0.2750000   0.3250000), wk =   0.0120000
        k(  124) = (   0.1250000   0.2750000   0.3750000), wk =   0.0120000
        k(  125) = (   0.1250000   0.2750000   0.4250000), wk =   0.0120000
        k(  126) = (   0.1250000   0.2750000   0.4750000), wk =   0.0120000
        k(  127) = (   0.1250000   0.3250000   0.3250000), wk =   0.0060000
        k(  128) = (   0.1250000   0.3250000   0.3750000), wk =   0.0120000
        k(  129) = (   0.1250000   0.3250000   0.4250000), wk =   0.0120000
        k(  130) = (   0.1250000   0.3250000   0.4750000), wk =   0.0120000
        k(  131) = (   0.1250000   0.3750000   0.3750000), wk =   0.0060000
        k(  132) = (   0.1250000   0.3750000   0.4250000), wk =   0.0120000
        k(  133) = (   0.1250000   0.3750000   0.4750000), wk =   0.0120000
        k(  134) = (   0.1250000   0.4250000   0.4250000), wk =   0.0060000
        k(  135) = (   0.1250000   0.4250000   0.4750000), wk =   0.0120000
        k(  136) = (   0.1250000   0.4750000   0.4750000), wk =   0.0060000
        k(  137) = (   0.1750000   0.1750000   0.1750000), wk =   0.0020000
        k(  138) = (   0.1750000   0.1750000   0.2250000), wk =   0.0060000
        k(  139) = (   0.1750000   0.1750000   0.2750000), wk =   0.0060000
        k(  140) = (   0.1750000   0.1750000   0.3250000), wk =   0.0060000
        k(  141) = (   0.1750000   0.1750000   0.3750000), wk =   0.0060000
        k(  142) = (   0.1750000   0.1750000   0.4250000), wk =   0.0060000
        k(  143) = (   0.1750000   0.1750000   0.4750000), wk =   0.0060000
        k(  144) = (   0.1750000   0.2250000   0.2250000), wk =   0.0060000
        k(  145) = (   0.1750000   0.2250000   0.2750000), wk =   0.0120000
        k(  146) = (   0.1750000   0.2250000   0.3250000), wk =   0.0120000
        k(  147) = (   0.1750000   0.2250000   0.3750000), wk =   0.0120000
        k(  148) = (   0.1750000   0.2250000   0.4250000), wk =   0.0120000
        k(  149) = (   0.1750000   0.2250000   0.4750000), wk =   0.0120000
        k(  150) = (   0.1750000   0.2750000   0.2750000), wk =   0.0060000
        k(  151) = (   0.1750000   0.2750000   0.3250000), wk =   0.0120000
        k(  152) = (   0.1750000   0.2750000   0.3750000), wk =   0.0120000
        k(  153) = (   0.1750000   0.2750000   0.4250000), wk =   0.0120000
        k(  154) = (   0.1750000   0.2750000   0.4750000), wk =   0.0120000
        k(  155) = (   0.1750000   0.3250000   0.3250000), wk =   0.0060000
        k(  156) = (   0.1750000   0.3250000   0.3750000), wk =   0.0120000
        k(  157) = (   0.1750000   0.3250000   0.4250000), wk =   0.0120000
        k(  158) = (   0.1750000   0.3250000   0.4750000), wk =   0.0120000
        k(  159) = (   0.1750000   0.3750000   0.3750000), wk =   0.0060000
        k(  160) = (   0.1750000   0.3750000   0.4250000), wk =   0.0120000
        k(  161) = (   0.1750000   0.3750000   0.4750000), wk =   0.0120000
        k(  162) = (   0.1750000   0.4250000   0.4250000), wk =   0.0060000
        k(  163) = (   0.1750000   0.4250000   0.4750000), wk =   0.0120000
        k(  164) = (   0.1750000   0.4750000   0.4750000), wk =   0.0060000
        k(  165) = (   0.2250000   0.2250000   0.2250000), wk =   0.0020000
        k(  166) = (   0.2250000   0.2250000   0.2750000), wk =   0.0060000
        k(  167) = (   0.2250000   0.2250000   0.3250000), wk =   0.0060000
        k(  168) = (   0.2250000   0.2250000   0.3750000), wk =   0.0060000
        k(  169) = (   0.2250000   0.2250000   0.4250000), wk =   0.0060000
        k(  170) = (   0.2250000   0.2250000   0.4750000), wk =   0.0060000
        k(  171) = (   0.2250000   0.2750000   0.2750000), wk =   0.0060000
        k(  172) = (   0.2250000   0.2750000   0.3250000), wk =   0.0120000
        k(  173) = (   0.2250000   0.2750000   0.3750000), wk =   0.0120000
        k(  174) = (   0.2250000   0.2750000   0.4250000), wk =   0.0120000
        k(  175) = (   0.2250000   0.2750000   0.4750000), wk =   0.0120000
        k(  176) = (   0.2250000   0.3250000   0.3250000), wk =   0.0060000
        k(  177) = (   0.2250000   0.3250000   0.3750000), wk =   0.0120000
        k(  178) = (   0.2250000   0.3250000   0.4250000), wk =   0.0120000
        k(  179) = (   0.2250000   0.3250000   0.4750000), wk =   0.0120000
        k(  180) = (   0.2250000   0.3750000   0.3750000), wk =   0.0060000
        k(  181) = (   0.2250000   0.3750000   0.4250000), wk =   0.0120000
        k(  182) = (   0.2250000   0.3750000   0.4750000), wk =   0.0120000
        k(  183) = (   0.2250000   0.4250000   0.4250000), wk =   0.0060000
        k(  184) = (   0.2250000   0.4250000   0.4750000), wk =   0.0120000
        k(  185) = (   0.2250000   0.4750000   0.4750000), wk =   0.0060000
        k(  186) = (   0.2750000   0.2750000   0.2750000), wk =   0.0020000
        k(  187) = (   0.2750000   0.2750000   0.3250000), wk =   0.0060000
        k(  188) = (   0.2750000   0.2750000   0.3750000), wk =   0.0060000
        k(  189) = (   0.2750000   0.2750000   0.4250000), wk =   0.0060000
        k(  190) = (   0.2750000   0.2750000   0.4750000), wk =   0.0060000
        k(  191) = (   0.2750000   0.3250000   0.3250000), wk =   0.0060000
        k(  192) = (   0.2750000   0.3250000   0.3750000), wk =   0.0120000
        k(  193) = (   0.2750000   0.3250000   0.4250000), wk =   0.0120000
        k(  194) = (   0.2750000   0.3250000   0.4750000), wk =   0.0120000
        k(  195) = (   0.2750000   0.3750000   0.3750000), wk =   0.0060000
        k(  196) = (   0.2750000   0.3750000   0.4250000), wk =   0.0120000
        k(  197) = (   0.2750000   0.3750000   0.4750000), wk =   0.0120000
        k(  198) = (   0.2750000   0.4250000   0.4250000), wk =   0.0060000
        k(  199) = (   0.2750000   0.4250000   0.4750000), wk =   0.0120000
        k(  200) = (   0.2750000   0.4750000   0.4750000), wk =   0.0060000
        k(  201) = (   0.3250000   0.3250000   0.3250000), wk =   0.0020000
        k(  202) = (   0.3250000   0.3250000   0.3750000), wk =   0.0060000
        k(  203) = (   0.3250000   0.3250000   0.4250000), wk =   0.0060000
        k(  204) = (   0.3250000   0.3250000   0.4750000), wk =   0.0060000
        k(  205) = (   0.3250000   0.3750000   0.3750000), wk =   0.0060000
        k(  206) = (   0.3250000   0.3750000   0.4250000), wk =   0.0120000
        k(  207) = (   0.3250000   0.3750000   0.4750000), wk =   0.0120000
        k(  208) = (   0.3250000   0.4250000   0.4250000), wk =   0.0060000
        k(  209) = (   0.3250000   0.4250000   0.4750000), wk =   0.0120000
        k(  210) = (   0.3250000   0.4750000   0.4750000), wk =   0.0060000
        k(  211) = (   0.3750000   0.3750000   0.3750000), wk =   0.0020000
        k(  212) = (   0.3750000   0.3750000   0.4250000), wk =   0.0060000
        k(  213) = (   0.3750000   0.3750000   0.4750000), wk =   0.0060000
        k(  214) = (   0.3750000   0.4250000   0.4250000), wk =   0.0060000
        k(  215) = (   0.3750000   0.4250000   0.4750000), wk =   0.0120000
        k(  216) = (   0.3750000   0.4750000   0.4750000), wk =   0.0060000
        k(  217) = (   0.4250000   0.4250000   0.4250000), wk =   0.0020000
        k(  218) = (   0.4250000   0.4250000   0.4750000), wk =   0.0060000
        k(  219) = (   0.4250000   0.4750000   0.4750000), wk =   0.0060000
        k(  220) = (   0.4750000   0.4750000   0.4750000), wk =   0.0020000

     Dense  grid:    80989 G-vectors     FFT dimensions: (  54,  54,  54)

     Smooth grid:    20377 G-vectors     FFT dimensions: (  36,  36,  36)

     Dynamical RAM for                 wfc:       0.09 MB

     Dynamical RAM for     wfc (w. buffer):       9.97 MB

     Dynamical RAM for           str. fact:       0.37 MB

     Dynamical RAM for           local pot:       0.00 MB

     Dynamical RAM for          nlocal pot:       0.24 MB

     Dynamical RAM for                qrad:       6.42 MB

     Dynamical RAM for          rho,v,vnew:       0.77 MB

     Dynamical RAM for               rhoin:       0.26 MB

     Dynamical RAM for            rho*nmix:       1.98 MB

     Dynamical RAM for           G-vectors:       0.48 MB

     Dynamical RAM for          h,s,v(r/c):       0.10 MB

     Dynamical RAM for          <psi|beta>:       0.02 MB

     Dynamical RAM for                 psi:       0.18 MB

     Dynamical RAM for                hpsi:       0.18 MB

     Dynamical RAM for                spsi:       0.18 MB

     Dynamical RAM for      wfcinit/wfcrot:       0.23 MB

     Dynamical RAM for           addusdens:      12.91 MB

     Dynamical RAM for          addusforce:      13.17 MB

     Dynamical RAM for         addusstress:      13.62 MB

     Estimated static dynamical RAM per process >      19.67 MB

     Estimated max dynamical RAM per process >      35.27 MB

     Estimated total dynamical RAM >     685.68 MB

     Check: negative core charge=   -0.000002

     Initial potential from superposition of free atoms

     starting charge      37.9791, renormalised to      38.0000
     Starting wfcs are   27 randomized atomic wfcs
     Checking if some PAW data can be deallocated... 
       PAW data deallocated on   16 nodes for type:  1
       PAW data deallocated on    8 nodes for type:  3

     total cpu time spent up to now is        2.3 secs

     Self-consistent Calculation

     iteration #  1     ecut=    40.00 Ry     beta= 0.40
     Davidson diagonalization with overlap

---- Real-time Memory Report at c_bands before calling an iterative solver
            61 MiB given to the printing process from OS
             0 MiB allocation reported by mallinfo(arena+hblkhd)
         27181 MiB available memory on the node where the printing process lives
------------------
     ethr =  1.00E-02,  avg # of iterations =  2.9

     total cpu time spent up to now is        5.6 secs

     total energy              =    -628.09716927 Ry
     estimated scf accuracy    <       0.66099101 Ry

     iteration #  2     ecut=    40.00 Ry     beta= 0.40
     Davidson diagonalization with overlap

---- Real-time Memory Report at c_bands before calling an iterative solver
            72 MiB given to the printing process from OS
             0 MiB allocation reported by mallinfo(arena+hblkhd)
         27035 MiB available memory on the node where the printing process lives
------------------
     ethr =  1.74E-03,  avg # of iterations =  5.2

     total cpu time spent up to now is       11.3 secs

     total energy              =    -628.27831300 Ry
     estimated scf accuracy    <       0.05782258 Ry

     iteration #  3     ecut=    40.00 Ry     beta= 0.40
     Davidson diagonalization with overlap

---- Real-time Memory Report at c_bands before calling an iterative solver
            73 MiB given to the printing process from OS
             0 MiB allocation reported by mallinfo(arena+hblkhd)
         27021 MiB available memory on the node where the printing process lives
------------------
     ethr =  1.52E-04,  avg # of iterations = 10.6

     total cpu time spent up to now is       17.5 secs

     total energy              =    -628.28512713 Ry
     estimated scf accuracy    <       0.00906292 Ry

     iteration #  4     ecut=    40.00 Ry     beta= 0.40
     Davidson diagonalization with overlap

---- Real-time Memory Report at c_bands before calling an iterative solver
            73 MiB given to the printing process from OS
             0 MiB allocation reported by mallinfo(arena+hblkhd)
         27052 MiB available memory on the node where the printing process lives
------------------
     ethr =  2.38E-05,  avg # of iterations =  4.3

     total cpu time spent up to now is       21.9 secs

     total energy              =    -628.28642088 Ry
     estimated scf accuracy    <       0.00186371 Ry

     iteration #  5     ecut=    40.00 Ry     beta= 0.40
     Davidson diagonalization with overlap

---- Real-time Memory Report at c_bands before calling an iterative solver
            73 MiB given to the printing process from OS
             0 MiB allocation reported by mallinfo(arena+hblkhd)
         27068 MiB available memory on the node where the printing process lives
------------------
     ethr =  4.90E-06,  avg # of iterations =  5.5

     total cpu time spent up to now is       29.3 secs

     total energy              =    -628.28673026 Ry
     estimated scf accuracy    <       0.00011986 Ry

     iteration #  6     ecut=    40.00 Ry     beta= 0.40
     Davidson diagonalization with overlap

---- Real-time Memory Report at c_bands before calling an iterative solver
            73 MiB given to the printing process from OS
             0 MiB allocation reported by mallinfo(arena+hblkhd)
         27061 MiB available memory on the node where the printing process lives
------------------
     ethr =  3.15E-07,  avg # of iterations =  2.2

     total cpu time spent up to now is       33.9 secs

     total energy              =    -628.28676970 Ry
     estimated scf accuracy    <       0.00001204 Ry

     iteration #  7     ecut=    40.00 Ry     beta= 0.40
     Davidson diagonalization with overlap

---- Real-time Memory Report at c_bands before calling an iterative solver
            73 MiB given to the printing process from OS
             0 MiB allocation reported by mallinfo(arena+hblkhd)
         27065 MiB available memory on the node where the printing process lives
------------------
     ethr =  3.17E-08,  avg # of iterations =  3.7

     total cpu time spent up to now is       40.8 secs

     total energy              =    -628.28675913 Ry
     estimated scf accuracy    <       0.00002373 Ry

     iteration #  8     ecut=    40.00 Ry     beta= 0.40
     Davidson diagonalization with overlap

---- Real-time Memory Report at c_bands before calling an iterative solver
            73 MiB given to the printing process from OS
             0 MiB allocation reported by mallinfo(arena+hblkhd)
         27076 MiB available memory on the node where the printing process lives
------------------
     ethr =  3.17E-08,  avg # of iterations =  4.0

     total cpu time spent up to now is       48.2 secs

     total energy              =    -628.28676787 Ry
     estimated scf accuracy    <       0.00001270 Ry

     iteration #  9     ecut=    40.00 Ry     beta= 0.40
     Davidson diagonalization with overlap

---- Real-time Memory Report at c_bands before calling an iterative solver
            73 MiB given to the printing process from OS
             0 MiB allocation reported by mallinfo(arena+hblkhd)
         27064 MiB available memory on the node where the printing process lives
------------------
     ethr =  3.17E-08,  avg # of iterations =  2.0

     total cpu time spent up to now is       52.6 secs

     total energy              =    -628.28676862 Ry
     estimated scf accuracy    <       0.00000179 Ry

     iteration # 10     ecut=    40.00 Ry     beta= 0.40
     Davidson diagonalization with overlap

---- Real-time Memory Report at c_bands before calling an iterative solver
            73 MiB given to the printing process from OS
             0 MiB allocation reported by mallinfo(arena+hblkhd)
         27074 MiB available memory on the node where the printing process lives
------------------
     ethr =  4.70E-09,  avg # of iterations =  2.0

     total cpu time spent up to now is       57.6 secs

     total energy              =    -628.28676855 Ry
     estimated scf accuracy    <       0.00000056 Ry

     iteration # 11     ecut=    40.00 Ry     beta= 0.40
     Davidson diagonalization with overlap

---- Real-time Memory Report at c_bands before calling an iterative solver
            73 MiB given to the printing process from OS
             0 MiB allocation reported by mallinfo(arena+hblkhd)
         27068 MiB available memory on the node where the printing process lives
------------------
     ethr =  1.47E-09,  avg # of iterations =  3.0

     total cpu time spent up to now is       61.7 secs

     End of self-consistent calculation

          k = 0.0250 0.0250 0.0250 (  2538 PWs)   bands (ev):

   -30.3727 -20.0271 -11.7254 -11.7250 -11.7250  -9.9232  -9.5998  -9.5998
    -5.0731  -5.0731  -5.0699   4.5473   4.5647   4.5647   5.0508   5.0508
     5.0688   5.7436   5.7562   5.7562  10.2951  10.2951  10.6001

     occupation numbers 
     1.0000   1.0000   1.0000   1.0000   1.0000   1.0000   1.0000   1.0000
     1.0000   1.0000   1.0000   1.0001   1.0002   1.0002   1.0726   1.0726
     1.0773   0.0426   0.0365   0.0365   0.0000   0.0000   0.0000

          k = 0.0250 0.0250 0.0750 (  2546 PWs)   bands (ev):

   -30.3725 -20.0262 -11.7717 -11.7249 -11.7247  -9.9054  -9.5992  -9.5583
    -5.0736  -5.0715  -5.0649   4.5139   4.5590   4.5647   5.0109   5.0317
     5.0630   5.6668   5.7438   5.7474  10.3535  10.3593  10.6947

     occupation numbers 
     1.0000   1.0000   1.0000   1.0000   1.0000   1.0000   1.0000   1.0000
     1.0000   1.0000   1.0000   1.0001   1.0002   1.0002   1.0597   1.0667
     1.0758   0.1015   0.0426   0.0407   0.0000   0.0000   0.0000

          k = 0.0250 0.0250 0.1250 (  2560 PWs)   bands (ev):

   -30.3721 -20.0247 -11.8535 -11.7243 -11.7239  -9.8881  -9.5980  -9.4694
    -5.0719  -5.0686  -5.0580   4.4596   4.5475   4.5546   4.9529   4.9962
     5.0370   5.5183   5.7274   5.7319  10.4649  10.4786  10.8823

     occupation numbers 
     1.0000   1.0000   1.0000   1.0000   1.0000   1.0000   1.0000   1.0000
     1.0000   1.0000   1.0000   1.0000   1.0001   1.0001   1.0401   1.0547
     1.0684   0.3574   0.0518   0.0492   0.0000   0.0000   0.0000

          k = 0.0250 0.0250 0.1750 (  2567 PWs)   bands (ev):

   -30.3716 -20.0226 -11.9545 -11.7234 -11.7229  -9.8829  -9.5965  -9.3392
    -5.0682  -5.0646  -5.0499   4.3894   4.5302   4.5366   4.8830   4.9498
     4.9971   5.3229   5.7068   5.7111  10.6191  10.6403  11.1574

     occupation numbers 
     1.0000   1.0000   1.0000   1.0000   1.0000   1.0000   1.0000   1.0000
     1.0000   1.0000   1.0000   1.0000   1.0001   1.0001   1.0211   1.0391
     1.0550   0.8674   0.0659   0.0627   0.0000   0.0000   0.0000

          k = 0.0250 0.0250 0.2250 (  2559 PWs)   bands (ev):

   -30.3710 -20.0200 -12.0606 -11.7223 -11.7218  -9.8884  -9.5947  -9.1860
    -5.0630  -5.0599  -5.0412   4.3114   4.5072   4.5114   4.8098   4.8959
     4.9509   5.1078   5.6827   5.6871  10.8026  10.8306  11.5110

     occupation numbers 
     1.0000   1.0000   1.0000   1.0000   1.0000   1.0000   1.0000   1.0000
     1.0000   1.0000   1.0000   1.0000   1.0001   1.0001   1.0091   1.0241
     1.0395   1.0831   0.0858   0.0819   0.0000   0.0000   0.0000

          k = 0.0250 0.0250 0.2750 (  2564 PWs)   bands (ev):

   -30.3704 -20.0174 -12.1611 -11.7212 -11.7205  -9.8999  -9.5928  -9.0289
    -5.0570  -5.0549  -5.0327   4.2307   4.4789   4.4792   4.7375   4.8137
     4.9041   4.9243   5.6580   5.6626  10.9985  11.0343  11.9316

     occupation numbers 
     1.0000   1.0000   1.0000   1.0000   1.0000   1.0000   1.0000   1.0000
     1.0000   1.0000   1.0000   1.0000   1.0000   1.0000   1.0034   1.0096
     1.0261   1.0315   0.1110   0.1059   0.0000   0.0000   0.0000

          k = 0.0250 0.0250 0.3250 (  2577 PWs)   bands (ev):

   -30.3698 -20.0149 -12.2484 -11.7202 -11.7193  -9.9133  -9.5909  -8.8839
    -5.0509  -5.0501  -5.0249   4.1532   4.4443   4.4487   4.6507   4.6723
     4.8491   4.8631   5.6353   5.6400  11.1888  11.2336  12.1677

     occupation numbers 
     1.0000   1.0000   1.0000   1.0000   1.0000   1.0000   1.0000   1.0000
     1.0000   1.0000   1.0000   1.0000   1.0000   1.0000   1.0008   1.0012
     1.0146   1.0171   0.1386   0.1326   0.0000   0.0000   0.0000

          k = 0.0250 0.0250 0.3750 (  2573 PWs)   bands (ev):

   -30.3693 -20.0127 -12.3176 -11.7193 -11.7183  -9.9257  -9.5894  -8.7635
    -5.0461  -5.0454  -5.0186   4.0861   4.4108   4.4203   4.4962   4.6200
     4.8155   4.8318   5.6163   5.6220  11.3546  11.4096  12.3302

     occupation numbers 
     1.0000   1.0000   1.0000   1.0000   1.0000   1.0000   1.0000   1.0000
     1.0000   1.0000   1.0000   1.0000   1.0000   1.0000   1.0000   1.0005
     1.0098   1.0120   0.1654   0.1569   0.0000   0.0000   0.0000

          k = 0.0250 0.0250 0.4250 (  2573 PWs)   bands (ev):

   -30.3689 -20.0112 -12.3653 -11.7186 -11.7176  -9.9351  -9.5883  -8.6775
    -5.0431  -5.0412  -5.0142   4.0344   4.3695   4.3980   4.4019   4.5831
     4.7961   4.8108   5.6032   5.6092  11.4780  11.5421  12.4958

     occupation numbers 
     1.0000   1.0000   1.0000   1.0000   1.0000   1.0000   1.0000   1.0000
     1.0000   1.0000   1.0000   1.0000   1.0000   1.0000   1.0000   1.0002
     1.0077   1.0092   0.1858   0.1763   0.0000   0.0000   0.0000

          k = 0.0250 0.0250 0.4750 (  2573 PWs)   bands (ev):

   -30.3687 -20.0104 -12.3896 -11.7183 -11.7172  -9.9402  -9.5877  -8.6327
    -5.0416  -5.0390  -5.0119   4.0056   4.3223   4.3798   4.3855   4.5646
     4.7864   4.8002   5.5965   5.6028  11.5440  11.6136  12.6258

     occupation numbers 
     1.0000   1.0000   1.0000   1.0000   1.0000   1.0000   1.0000   1.0000
     1.0000   1.0000   1.0000   1.0000   1.0000   1.0000   1.0000   1.0002
     1.0067   1.0081   0.1970   0.1864   0.0000   0.0000   0.0000

          k = 0.0250 0.0750 0.0750 (  2548 PWs)   bands (ev):

   -30.3723 -20.0254 -11.7723 -11.7706 -11.7244  -9.8842  -9.5760  -9.5424
    -5.0768  -5.0706  -5.0573   4.4692   4.5553   4.5756   4.9611   5.0077
     5.0759   5.6257   5.7007   5.7380  10.4094  10.4223  10.7819

     occupation numbers 
     1.0000   1.0000   1.0000   1.0000   1.0000   1.0000   1.0000   1.0000
     1.0000   1.0000   1.0000   1.0000   1.0001   1.0002   1.0428   1.0587
     1.0788   0.1517   0.0705   0.0457   0.0000   0.0000   0.0000

          k = 0.0250 0.0750 0.1250 (  2562 PWs)   bands (ev):

   -30.3719 -20.0239 -11.8534 -11.7710 -11.7237  -9.8623  -9.5667  -9.4655
    -5.0784  -5.0677  -5.0485   4.4063   4.5444   4.5760   4.8893   4.9722
     5.0693   5.4965   5.6727   5.7215  10.5136  10.5432  10.9545

     occupation numbers 
     1.0000   1.0000   1.0000   1.0000   1.0000   1.0000   1.0000   1.0000
     1.0000   1.0000   1.0000   1.0000   1.0001   1.0002   1.0226   1.0465
     1.0774   0.4111   0.0954   0.0556   0.0000   0.0000   0.0000

          k = 0.0250 0.0750 0.1750 (  2571 PWs)   bands (ev):

   -30.3714 -20.0217 -11.9546 -11.7703 -11.7228  -9.8535  -9.5640  -9.3388
    -5.0775  -5.0637  -5.0397   4.3329   4.5280   4.5632   4.8090   4.9256
     5.0450   5.3138   5.6502   5.6995  10.6598  10.7071  11.2088

     occupation numbers 
     1.0000   1.0000   1.0000   1.0000   1.0000   1.0000   1.0000   1.0000
     1.0000   1.0000   1.0000   1.0000   1.0001   1.0002   1.0090   1.0319
     1.0709   0.8873   0.1200   0.0714   0.0000   0.0000   0.0000

          k = 0.0250 0.0750 0.2250 (  2567 PWs)   bands (ev):

   -30.3708 -20.0192 -12.0609 -11.7696 -11.7217  -9.8566  -9.5621  -9.1871
    -5.0741  -5.0590  -5.0316   4.2561   4.5057   4.5380   4.7254   4.8700
     5.0005   5.1262   5.6261   5.6749  10.8365  10.8988  11.5360

     occupation numbers 
     1.0000   1.0000   1.0000   1.0000   1.0000   1.0000   1.0000   1.0000
     1.0000   1.0000   1.0000   1.0000   1.0001   1.0001   1.0028   1.0185
     1.0562   1.0829   0.1512   0.0932   0.0000   0.0000   0.0000

          k = 0.0250 0.0750 0.2750 (  2564 PWs)   bands (ev):

   -30.3702 -20.0166 -12.1614 -11.7687 -11.7205  -9.8662  -9.5603  -9.0306
    -5.0687  -5.0539  -5.0249   4.1813   4.4775   4.5025   4.6379   4.7881
     4.9075   5.0223   5.6011   5.6496  11.0282  11.1028  11.9217

     occupation numbers 
     1.0000   1.0000   1.0000   1.0000   1.0000   1.0000   1.0000   1.0000
     1.0000   1.0000   1.0000   1.0000   1.0000   1.0000   1.0007   1.0069
     1.0270   1.0636   0.1892   0.1207   0.0000   0.0000   0.0000

          k = 0.0250 0.0750 0.3250 (  2570 PWs)   bands (ev):

   -30.3696 -20.0141 -12.2488 -11.7680 -11.7194  -9.8781  -9.5586  -8.8859
    -5.0621  -5.0488  -5.0203   4.1131   4.4432   4.4602   4.5352   4.6739
     4.8408   4.9822   5.5779   5.6264  11.2171  11.3018  12.2001

     occupation numbers 
     1.0000   1.0000   1.0000   1.0000   1.0000   1.0000   1.0000   1.0000
     1.0000   1.0000   1.0000   1.0000   1.0000   1.0000   1.0001   1.0013
     1.0133   1.0499   0.2298   0.1508   0.0000   0.0000   0.0000

          k = 0.0250 0.0750 0.3750 (  2577 PWs)   bands (ev):

   -30.3691 -20.0119 -12.3181 -11.7673 -11.7185  -9.8894  -9.5572  -8.7656
    -5.0555  -5.0440  -5.0178   4.0567   4.3747   4.4206   4.4483   4.5954
     4.8059   4.9577   5.5584   5.6070  11.3836  11.4770  12.3578

     occupation numbers 
     1.0000   1.0000   1.0000   1.0000   1.0000   1.0000   1.0000   1.0000
     1.0000   1.0000   1.0000   1.0000   1.0000   1.0000   1.0000   1.0003
     1.0087   1.0417   0.2680   0.1797   0.0000   0.0000   0.0000

          k = 0.0250 0.0750 0.4250 (  2574 PWs)   bands (ev):

   -30.3687 -20.0104 -12.3659 -11.7669 -11.7178  -9.8980  -9.5561  -8.6797
    -5.0501  -5.0398  -5.0174   4.0161   4.2796   4.3933   4.4155   4.5509
     4.7855   4.9428   5.5436   5.5936  11.5088  11.6090  12.5179

     occupation numbers 
     1.0000   1.0000   1.0000   1.0000   1.0000   1.0000   1.0000   1.0000
     1.0000   1.0000   1.0000   1.0000   1.0000   1.0000   1.0000   1.0001
     1.0067   1.0370   0.2995   0.2018   0.0000   0.0000   0.0000

          k = 0.0250 0.0750 0.4750 (  2569 PWs)   bands (ev):

   -30.3685 -20.0095 -12.3903 -11.7666 -11.7174  -9.9027  -9.5556  -8.6349
    -5.0473  -5.0368  -5.0179   3.9947   4.2246   4.3784   4.4015   4.5302
     4.7758   4.9357   5.5360   5.5867  11.5763  11.6802  12.6447

     occupation numbers 
     1.0000   1.0000   1.0000   1.0000   1.0000   1.0000   1.0000   1.0000
     1.0000   1.0000   1.0000   1.0000   1.0000   1.0000   1.0000   1.0001
     1.0058   1.0348   0.3161   0.2138   0.0000   0.0000   0.0000

          k = 0.0250 0.1250 0.1250 (  2574 PWs)   bands (ev):

   -30.3716 -20.0223 -11.8549 -11.8516 -11.7231  -9.8338  -9.5120  -9.4391
    -5.0839  -5.0649  -5.0386   4.3341   4.5351   4.5895   4.8062   4.9364
     5.0854   5.4210   5.6024   5.7039  10.6049  10.6687  11.0984

     occupation numbers 
     1.0000   1.0000   1.0000   1.0000   1.0000   1.0000   1.0000   1.0000
     1.0000   1.0000   1.0000   1.0000   1.0001   1.0003   1.0087   1.0350
     1.0806   0.6149   0.1870   0.0680   0.0000   0.0000   0.0000

          k = 0.0250 0.1250 0.1750 (  2570 PWs)   bands (ev):

   -30.3711 -20.0202 -11.9548 -11.8529 -11.7221  -9.8193  -9.4902  -9.3356
    -5.0867  -5.0608  -5.0299   4.2548   4.5204   4.5872   4.7163   4.8903
     5.0823   5.2769   5.5610   5.6807  10.7361  10.8391  11.3131

     occupation numbers 
     1.0000   1.0000   1.0000   1.0000   1.0000   1.0000   1.0000   1.0000
     1.0000   1.0000   1.0000   1.0000   1.0001   1.0003   1.0025   1.0228
     1.0801   0.9583   0.2628   0.0877   0.0000   0.0000   0.0000

          k = 0.0250 0.1250 0.2250 (  2574 PWs)   bands (ev):

   -30.3705 -20.0177 -12.0613 -11.8527 -11.7210  -9.8177  -9.4861  -9.1886
    -5.0864  -5.0560  -5.0231   4.1753   4.4995   4.5667   4.6228   4.8365
     5.0280   5.1448   5.5318   5.6539  10.8995  11.0361  11.5937

     occupation numbers 
     1.0000   1.0000   1.0000   1.0000   1.0000   1.0000   1.0000   1.0000
     1.0000   1.0000   1.0000   1.0000   1.0000   1.0002   1.0005   1.0127
     1.0655   1.0803   0.3258   0.1157   0.0000   0.0000   0.0000

          k = 0.0250 0.1250 0.2750 (  2569 PWs)   bands (ev):

   -30.3698 -20.0150 -12.1621 -11.8524 -11.7199  -9.8232  -9.4847  -9.0337
    -5.0832  -5.0509  -5.0190   4.1021   4.4734   4.5170   4.5349   4.7697
     4.9022   5.1077   5.5046   5.6272  11.0823  11.2423  11.9246

     occupation numbers 
     1.0000   1.0000   1.0000   1.0000   1.0000   1.0000   1.0000   1.0000
     1.0000   1.0000   1.0000   1.0000   1.0000   1.0001   1.0001   1.0054
     1.0256   1.0831   0.3907   0.1496   0.0000   0.0000   0.0000

          k = 0.0250 0.1250 0.3250 (  2570 PWs)   bands (ev):

   -30.3692 -20.0125 -12.2497 -11.8522 -11.7188  -9.8316  -9.4840  -8.8896
    -5.0775  -5.0459  -5.0179   4.0405   4.3956   4.4429   4.4924   4.6847
     4.8217   5.0963   5.4779   5.6023  11.2675  11.4414  12.2429

     occupation numbers 
[...]

   -30.3632 -19.9878 -12.3669 -12.2528 -12.2390  -8.9539  -8.8610  -8.6949
    -5.2299  -5.2198  -5.1377   3.7016   3.8787   4.0756   4.1622   4.4313
     4.5093   5.4063   5.4665   5.5879  11.8122  11.9278  11.9329

     occupation numbers 
     1.0000   1.0000   1.0000   1.0000   1.0000   1.0000   1.0000   1.0000
     1.0000   1.0000   1.0000   1.0000   1.0000   1.0000   1.0000   1.0000
     1.0001   0.6555   0.4898   0.2118   0.0000   0.0000   0.0000

          k = 0.3250 0.3250 0.4750 (  2547 PWs)   bands (ev):

   -30.3631 -19.9870 -12.3915 -12.2528 -12.2382  -8.9512  -8.8594  -8.6515
    -5.2353  -5.2196  -5.1519   3.7248   3.8067   4.0633   4.1663   4.4254
     4.5105   5.4077   5.4825   5.6002  11.7960  11.9223  11.9367

     occupation numbers 
     1.0000   1.0000   1.0000   1.0000   1.0000   1.0000   1.0000   1.0000
     1.0000   1.0000   1.0000   1.0000   1.0000   1.0000   1.0000   1.0000
     1.0001   0.6517   0.4473   0.1908   0.0000   0.0000   0.0000

          k = 0.3250 0.3750 0.3750 (  2542 PWs)   bands (ev):

   -30.3631 -19.9873 -12.3208 -12.3139 -12.2446  -8.9217  -8.7883  -8.7610
    -5.2331  -5.2317  -5.1432   3.6911   3.9272   4.1010   4.1113   4.4000
     4.4884   5.4449   5.4694   5.5989  11.7749  11.8849  11.8947

     occupation numbers 
     1.0000   1.0000   1.0000   1.0000   1.0000   1.0000   1.0000   1.0000
     1.0000   1.0000   1.0000   1.0000   1.0000   1.0000   1.0000   1.0000
     1.0000   0.5488   0.4819   0.1929   0.0000   0.0000   0.0000

          k = 0.3250 0.3750 0.4250 (  2553 PWs)   bands (ev):

   -30.3627 -19.9859 -12.3656 -12.3164 -12.2435  -8.9120  -8.7741  -8.6920
    -5.2443  -5.2381  -5.1672   3.6918   3.8616   4.0766   4.1229   4.3634
     4.4877   5.4613   5.4992   5.6275  11.7185  11.8588  11.8687

     occupation numbers 
     1.0000   1.0000   1.0000   1.0000   1.0000   1.0000   1.0000   1.0000
     1.0000   1.0000   1.0000   1.0000   1.0000   1.0000   1.0000   1.0000
     1.0000   0.5040   0.4042   0.1492   0.0000   0.0000   0.0000

          k = 0.3250 0.3750 0.4750 (  2552 PWs)   bands (ev):

   -30.3626 -19.9851 -12.3902 -12.3160 -12.2429  -8.9087  -8.7720  -8.6490
    -5.2504  -5.2391  -5.1820   3.6910   3.8225   4.0631   4.1318   4.3488
     4.4885   5.4666   5.5169   5.6433  11.6887  11.8482  11.8548

     occupation numbers 
     1.0000   1.0000   1.0000   1.0000   1.0000   1.0000   1.0000   1.0000
     1.0000   1.0000   1.0000   1.0000   1.0000   1.0000   1.0000   1.0000
     1.0000   0.4895   0.3606   0.1284   0.0000   0.0000   0.0000

          k = 0.3250 0.4250 0.4250 (  2551 PWs)   bands (ev):

   -30.3624 -19.9845 -12.3659 -12.3633 -12.2423  -8.9015  -8.6978  -8.6850
    -5.2523  -5.2506  -5.1916   3.6708   3.8378   4.0893   4.0963   4.3160
     4.4855   5.4979   5.5165   5.6637  11.6364  11.8222  11.8306

     occupation numbers 
     1.0000   1.0000   1.0000   1.0000   1.0000   1.0000   1.0000   1.0000
     1.0000   1.0000   1.0000   1.0000   1.0000   1.0000   1.0000   1.0000
     1.0000   0.4076   0.3615   0.1047   0.0000   0.0000   0.0000

          k = 0.3250 0.4250 0.4750 (  2553 PWs)   bands (ev):

   -30.3622 -19.9837 -12.3892 -12.3641 -12.2416  -8.8977  -8.6905  -8.6472
    -5.2585  -5.2532  -5.2065   3.6537   3.8240   4.0775   4.1042   4.2947
     4.4853   5.5102   5.5304   5.6835  11.5917  11.8066  11.8111

     occupation numbers 
     1.0000   1.0000   1.0000   1.0000   1.0000   1.0000   1.0000   1.0000
     1.0000   1.0000   1.0000   1.0000   1.0000   1.0000   1.0000   1.0000
     1.0000   0.3769   0.3289   0.0851   0.0000   0.0000   0.0000

          k = 0.3250 0.4750 0.4750 (  2538 PWs)   bands (ev):

   -30.3620 -19.9830 -12.3889 -12.3886 -12.2408  -8.8936  -8.6472  -8.6456
    -5.2609  -5.2605  -5.2212   3.6296   3.8217   4.0890   4.0900   4.2708
     4.4852   5.5337   5.5365   5.7066  11.5386  11.7885  11.7897

     occupation numbers 
     1.0000   1.0000   1.0000   1.0000   1.0000   1.0000   1.0000   1.0000
     1.0000   1.0000   1.0000   1.0000   1.0000   1.0000   1.0000   1.0000
     1.0000   0.3213   0.3151   0.0660   0.0000   0.0000   0.0000

          k = 0.3750 0.3750 0.3750 (  2533 PWs)   bands (ev):

   -30.3626 -19.9854 -12.3225 -12.3116 -12.3116  -8.8268  -8.7560  -8.7560
    -5.2491  -5.2491  -5.1742   3.6855   3.9261   4.0774   4.0774   4.4020
     4.4020   5.5117   5.5117   5.6224  11.7165  11.8013  11.8013

     occupation numbers 
     1.0000   1.0000   1.0000   1.0000   1.0000   1.0000   1.0000   1.0000
     1.0000   1.0000   1.0000   1.0000   1.0000   1.0000   1.0000   1.0000
     1.0000   0.3731   0.3731   0.1564   0.0000   0.0000   0.0000

          k = 0.3750 0.3750 0.4250 (  2546 PWs)   bands (ev):

   -30.3622 -19.9840 -12.3639 -12.3178 -12.3100  -8.8048  -8.7523  -8.6875
    -5.2617  -5.2573  -5.1999   3.6679   3.8995   4.0547   4.0865   4.3526
     4.4031   5.5318   5.5582   5.6463  11.6595  11.7373  11.7582

     occupation numbers 
     1.0000   1.0000   1.0000   1.0000   1.0000   1.0000   1.0000   1.0000
     1.0000   1.0000   1.0000   1.0000   1.0000   1.0000   1.0000   1.0000
     1.0000   0.3257   0.2684   0.1246   0.0000   0.0000   0.0000

          k = 0.3750 0.3750 0.4750 (  2543 PWs)   bands (ev):

   -30.3621 -19.9832 -12.3883 -12.3175 -12.3091  -8.8003  -8.7504  -8.6450
    -5.2683  -5.2593  -5.2157   3.6523   3.8821   4.0433   4.0974   4.3318
     4.4040   5.5396   5.5825   5.6617  11.6266  11.7049  11.7398

     occupation numbers 
     1.0000   1.0000   1.0000   1.0000   1.0000   1.0000   1.0000   1.0000
     1.0000   1.0000   1.0000   1.0000   1.0000   1.0000   1.0000   1.0000
     1.0000   0.3082   0.2215   0.1069   0.0000   0.0000   0.0000

          k = 0.3750 0.4250 0.4250 (  2539 PWs)   bands (ev):

   -30.3619 -19.9826 -12.3640 -12.3609 -12.3122  -8.7785  -8.6916  -8.6794
    -5.2723  -5.2703  -5.2263   3.6354   3.9111   4.0558   4.0647   4.3177
     4.3823   5.5784   5.5908   5.6725  11.5891  11.6759  11.6864

     occupation numbers 
     1.0000   1.0000   1.0000   1.0000   1.0000   1.0000   1.0000   1.0000
     1.0000   1.0000   1.0000   1.0000   1.0000   1.0000   1.0000   1.0000
     1.0000   0.2290   0.2066   0.0956   0.0000   0.0000   0.0000

          k = 0.3750 0.4250 0.4750 (  2530 PWs)   bands (ev):

   -30.3617 -19.9819 -12.3870 -12.3618 -12.3115  -8.7739  -8.6842  -8.6420
    -5.2788  -5.2739  -5.2424   3.6135   3.9097   4.0474   4.0722   4.2953
     4.3799   5.5927   5.6127   5.6910  11.5440  11.6418  11.6609

     occupation numbers 
     1.0000   1.0000   1.0000   1.0000   1.0000   1.0000   1.0000   1.0000
     1.0000   1.0000   1.0000   1.0000   1.0000   1.0000   1.0000   1.0000
     1.0000   0.2034   0.1708   0.0785   0.0000   0.0000   0.0000

          k = 0.3750 0.4750 0.4750 (  2532 PWs)   bands (ev):

   -30.3615 -19.9812 -12.3865 -12.3861 -12.3107  -8.7692  -8.6414  -8.6398
    -5.2821  -5.2814  -5.2587   3.5887   3.9154   4.0579   4.0595   4.2721
     4.3753   5.6198   5.6223   5.7123  11.4902  11.6194  11.6213

     occupation numbers 
     1.0000   1.0000   1.0000   1.0000   1.0000   1.0000   1.0000   1.0000
     1.0000   1.0000   1.0000   1.0000   1.0000   1.0000   1.0000   1.0000
     1.0000   0.1603   0.1565   0.0618   0.0000   0.0000   0.0000

          k = 0.4250 0.4250 0.4250 (  2527 PWs)   bands (ev):

   -30.3615 -19.9812 -12.3638 -12.3592 -12.3592  -8.7028  -8.6754  -8.6754
    -5.2845  -5.2845  -5.2534   3.5982   3.9549   4.0437   4.0437   4.3190
     4.3190   5.6360   5.6360   5.6862  11.5433  11.5849  11.5849

     occupation numbers 
     1.0000   1.0000   1.0000   1.0000   1.0000   1.0000   1.0000   1.0000
     1.0000   1.0000   1.0000   1.0000   1.0000   1.0000   1.0000   1.0000
     1.0000   0.1377   0.1377   0.0827   0.0000   0.0000   0.0000

          k = 0.4250 0.4250 0.4750 (  2531 PWs)   bands (ev):

   -30.3613 -19.9805 -12.3854 -12.3615 -12.3583  -8.6922  -8.6732  -8.6382
    -5.2921  -5.2889  -5.2697   3.5741   3.9657   4.0329   4.0495   4.2899
     4.3195   5.6515   5.6656   5.7012  11.5020  11.5324  11.5554

     occupation numbers 
     1.0000   1.0000   1.0000   1.0000   1.0000   1.0000   1.0000   1.0000
     1.0000   1.0000   1.0000   1.0000   1.0000   1.0000   1.0000   1.0000
     1.0000   0.1185   0.1028   0.0701   0.0000   0.0000   0.0000

          k = 0.4250 0.4750 0.4750 (  2535 PWs)   bands (ev):

   -30.3611 -19.9798 -12.3847 -12.3843 -12.3590  -8.6807  -8.6371  -8.6355
    -5.2972  -5.2965  -5.2859   3.5495   3.9833   4.0368   4.0385   4.2730
     4.3057   5.6815   5.6834   5.7167  11.4553  11.4998  11.5018

     occupation numbers 
     1.0000   1.0000   1.0000   1.0000   1.0000   1.0000   1.0000   1.0000
     1.0000   1.0000   1.0000   1.0000   1.0000   1.0000   1.0000   1.0000
     1.0000   0.0870   0.0852   0.0588   0.0000   0.0000   0.0000

          k = 0.4750 0.4750 0.4750 (  2515 PWs)   bands (ev):

   -30.3610 -19.9791 -12.3840 -12.3834 -12.3834  -8.6364  -8.6332  -8.6332
    -5.3045  -5.3045  -5.3008   3.5256   4.0170   4.0287   4.0287   4.2740
     4.2740   5.7149   5.7149   5.7211  11.4349  11.4399  11.4399

     occupation numbers 
     1.0000   1.0000   1.0000   1.0000   1.0000   1.0000   1.0000   1.0000
     1.0000   1.0000   1.0000   1.0000   1.0000   1.0000   1.0000   1.0000
     1.0000   0.0600   0.0600   0.0558   0.0000   0.0000   0.0000

     the Fermi energy is     5.5006 ev

!    total energy              =    -628.28676868 Ry
     estimated scf accuracy    <          7.8E-09 Ry
     smearing contrib. (-TS)   =      -0.00190816 Ry
     internal energy E=F+TS    =    -628.28486052 Ry

     The total energy is F=E-TS. E is the sum of the following terms:
     one-electron contribution =     -64.48314910 Ry
     hartree contribution      =      52.32453785 Ry
     xc contribution           =     -53.70745621 Ry
     ewald contribution        =    -166.45952522 Ry
     one-center paw contrib.   =    -395.95926784 Ry
      -> PAW hartree energy AE =      28.32957878 Ry
      -> PAW hartree energy PS =     -28.21299078 Ry
      -> PAW xc energy AE      =    -387.73036084 Ry
      -> PAW xc energy PS      =      19.01814314 Ry
      -> total E_H with PAW    =      52.44112585 Ry
      -> total E_XC with PAW   =    -422.41967392 Ry

     convergence has been achieved in  11 iterations

     Forces acting on atoms (cartesian axes, Ry/au):

     atom    1 type  1   force =     0.00000000    0.00000000    0.00000000
     atom    2 type  2   force =     0.00000000    0.00000000    0.00000000
     atom    3 type  3   force =     0.00000000    0.00000000    0.00000000
     atom    4 type  3   force =     0.00000000    0.00000000    0.00000000
     atom    5 type  3   force =     0.00000000    0.00000000    0.00000000
     The non-local contrib.  to forces
     atom    1 type  1   force =     0.00000000    0.00000000    0.00000000
     atom    2 type  2   force =     0.00000000    0.00000000    0.00000000
     atom    3 type  3   force =     0.00000000    0.00000000    0.00000000
     atom    4 type  3   force =     0.00000000    0.00000000    0.00000000
     atom    5 type  3   force =     0.00000000    0.00000000    0.00000000
     The ionic contribution  to forces
     atom    1 type  1   force =    -0.00000000   -0.00000000   -0.00000000
     atom    2 type  2   force =     0.00000000    0.00000000    0.00000000
     atom    3 type  3   force =     0.00000000    0.00000000   -0.00000000
     atom    4 type  3   force =     0.00000000   -0.00000000    0.00000000
     atom    5 type  3   force =    -0.00000000    0.00000000    0.00000000
     The local contribution  to forces
     atom    1 type  1   force =     0.00000000    0.00000000    0.00000000
     atom    2 type  2   force =     0.00000000    0.00000000    0.00000000
     atom    3 type  3   force =     0.00000000    0.00000000    0.00000000
     atom    4 type  3   force =     0.00000000    0.00000000    0.00000000
     atom    5 type  3   force =     0.00000000    0.00000000    0.00000000
     The core correction contribution to forces
     atom    1 type  1   force =     0.00000000    0.00000000    0.00000000
     atom    2 type  2   force =    -0.00000000   -0.00000000   -0.00000000
     atom    3 type  3   force =     0.00000000    0.00000000    0.00000000
     atom    4 type  3   force =    -0.00000000   -0.00000000   -0.00000000
     atom    5 type  3   force =     0.00000000    0.00000000   -0.00000000
     The Hubbard contrib.    to forces
     atom    1 type  1   force =     0.00000000    0.00000000    0.00000000
     atom    2 type  2   force =     0.00000000    0.00000000    0.00000000
     atom    3 type  3   force =     0.00000000    0.00000000    0.00000000
     atom    4 type  3   force =     0.00000000    0.00000000    0.00000000
     atom    5 type  3   force =     0.00000000    0.00000000    0.00000000
     The SCF correction term to forces
     atom    1 type  1   force =     0.00000000   -0.00000000    0.00000000
     atom    2 type  2   force =     0.00000000   -0.00000000   -0.00000000
     atom    3 type  3   force =    -0.00000000   -0.00000000    0.00000000
     atom    4 type  3   force =     0.00000000   -0.00000000   -0.00000000
     atom    5 type  3   force =    -0.00000000   -0.00000000   -0.00000000

     Total force =     0.000000     Total SCF correction =     0.000000


     Computing stress (Cartesian axis) and pressure

          total   stress  (Ry/bohr**3)                   (kbar)     P=      -65.83
  -0.00044753   0.00000000   0.00000000          -65.83        0.00        0.00
   0.00000000  -0.00044753   0.00000000            0.00      -65.83        0.00
   0.00000000   0.00000000  -0.00044753            0.00        0.00      -65.83

     kinetic stress (kbar)  14361.93      0.00      0.00
                                0.00  14361.93      0.00
                                0.00      0.00  14361.93

     local   stress (kbar)  -6185.29      0.00      0.00
                                0.00  -6185.29      0.00
                                0.00      0.00  -6185.29

     nonloc. stress (kbar)   4519.30      0.00      0.00
                                0.00   4519.30      0.00
                                0.00      0.00   4519.30

     hartree stress (kbar)   4272.86      0.00     -0.00
                                0.00   4272.86     -0.00
                               -0.00     -0.00   4272.86

     exc-cor stress (kbar)    451.52      0.00     -0.00
                                0.00    451.52     -0.00
                               -0.00     -0.00    451.52

     corecor stress (kbar)  -3892.95      0.00      0.00
                                0.00  -3892.95      0.00
                                0.00      0.00  -3892.95

     ewald   stress (kbar) -13593.20     -0.00     -0.00
                               -0.00 -13593.20     -0.00
                               -0.00     -0.00 -13593.20

     hubbard stress (kbar)      0.00      0.00      0.00
                                0.00      0.00      0.00
                                0.00      0.00      0.00

     DFT-D   stress (kbar)      0.00      0.00      0.00
                                0.00      0.00      0.00
                                0.00      0.00      0.00

     XDM     stress (kbar)      0.00      0.00      0.00
                                0.00      0.00      0.00
                                0.00      0.00      0.00

     dft-nl  stress (kbar)      0.00      0.00      0.00
                                0.00      0.00      0.00
                                0.00      0.00      0.00

     TS-vdW  stress (kbar)      0.00      0.00      0.00
                                0.00      0.00      0.00
                                0.00      0.00      0.00

     MDB     stress (kbar)      0.00      0.00      0.00
                                0.00      0.00      0.00
                                0.00      0.00      0.00

     3D-RISM stress (kbar)      0.00      0.00      0.00
                                0.00      0.00      0.00
                                0.00      0.00      0.00


     Writing all to output data dir ./out/BCO.save/ :
     XML data file, charge density, pseudopotentials, collected wavefunctions

     init_run     :      1.56s CPU      1.76s WALL (       1 calls)
     electrons    :     56.83s CPU     59.48s WALL (       1 calls)
     forces       :      0.54s CPU      0.55s WALL (       1 calls)
     stress       :      1.81s CPU      1.99s WALL (       1 calls)

     Called by init_run:
     wfcinit      :      0.90s CPU      1.04s WALL (       1 calls)
     wfcinit:atom :      0.01s CPU      0.01s WALL (     110 calls)
     wfcinit:wfcr :      0.83s CPU      0.94s WALL (     110 calls)
     potinit      :      0.33s CPU      0.35s WALL (       1 calls)
     hinit0       :      0.23s CPU      0.23s WALL (       1 calls)

     Called by electrons:
     c_bands      :     49.28s CPU     51.59s WALL (      11 calls)
     sum_band     :      5.94s CPU      6.10s WALL (      11 calls)
     v_of_rho     :      0.14s CPU      0.15s WALL (      12 calls)
     v_h          :      0.01s CPU      0.01s WALL (      12 calls)
     v_xc         :      0.15s CPU      0.16s WALL (      14 calls)
     newd         :      0.57s CPU      0.63s WALL (      12 calls)
     PAW_pot      :      0.84s CPU      0.97s WALL (      12 calls)
     mix_rho      :      0.02s CPU      0.02s WALL (      11 calls)

     Called by c_bands:
     init_us_2    :      0.36s CPU      0.41s WALL (    2750 calls)
     init_us_2:cp :      0.36s CPU      0.41s WALL (    2750 calls)
     cegterg      :     40.48s CPU     42.58s WALL (    1210 calls)

     Called by sum_band:
     sum_band:wei :      0.04s CPU      0.04s WALL (      11 calls)
     sum_band:loo :      5.11s CPU      5.24s WALL (      11 calls)
     sum_band:buf :      0.03s CPU      0.03s WALL (    1210 calls)
     sum_band:ini :      0.14s CPU      0.14s WALL (    1210 calls)
     sum_band:cal :      1.44s CPU      1.49s WALL (    1210 calls)
     sum_band:bec :      0.05s CPU      0.05s WALL (    1210 calls)
     addusdens    :      0.52s CPU      0.53s WALL (      11 calls)
                                        0.00s GPU  (      11 calls)
     addusd:skk   :      0.00s CPU      0.00s WALL (      33 calls)
                                        0.00s GPU  (      33 calls)

     Called by *egterg:
     cdiaghg      :      4.55s CPU      4.82s WALL (    6234 calls)
     cegterg:over :      3.98s CPU      4.18s WALL (    5024 calls)
     cegterg:upda :      1.28s CPU      1.36s WALL (    5024 calls)
     cegterg:last :      2.99s CPU      3.13s WALL (    2592 calls)
     h_psi        :     22.53s CPU     23.82s WALL (    6344 calls)
     s_psi        :      2.71s CPU      2.84s WALL (    6344 calls)
     g_psi        :      0.04s CPU      0.04s WALL (    5024 calls)

     Called by h_psi:
     h_psi:calbec :      3.39s CPU      3.64s WALL (    6344 calls)
     vloc_psi     :     16.36s CPU     17.26s WALL (    6344 calls)
     add_vuspsi   :      2.72s CPU      2.86s WALL (    6344 calls)

     General routines
     calbec       :      5.47s CPU      5.82s WALL (    8104 calls)
     fft          :      0.23s CPU      0.24s WALL (     179 calls)
     ffts         :      0.17s CPU      0.18s WALL (      23 calls)
     fftw         :     18.20s CPU     19.10s WALL (  181696 calls)
     interpolate  :      0.19s CPU      0.20s WALL (      12 calls)

     Parallel routines

     PAW routines
     PAW_pot      :      0.84s CPU      0.97s WALL (      12 calls)
     PAW_symme    :      0.06s CPU      0.06s WALL (      23 calls)

     PWSCF        :   1m 1.25s CPU   1m 4.53s WALL


   This run was terminated on:  19: 8:39   8Apr2025            

=------------------------------------------------------------------------------=
   JOB DONE.
=------------------------------------------------------------------------------=
