
     Program PWSCF v.7.3 starts on  8Apr2025 at 19:22:40 

     This program is part of the open-source Quantum ESPRESSO suite
     for quantum simulation of materials; please cite
         "P. Giannozzi et al., J. Phys.:Condens. Matter 21 395502 (2009);
         "P. Giannozzi et al., J. Phys.:Condens. Matter 29 465901 (2017);
         "P. Giannozzi et al., J. Chem. Phys. 152 154105 (2020);
          URL http://www.quantum-espresso.org", 
     in publications or presentations arising from this work. More details at
     http://www.quantum-espresso.org/quote

     Parallel version (MPI), running on    20 processors

     MPI processes distributed on     1 nodes
     27064 MiB available memory on the printing compute node when the environment starts

     Waiting for input...
     Reading input from standard input

     Current dimensions of program PWSCF are:
     Max number of different atomic species (ntypx) = 10
     Max number of k-points (npk) = 120000
     Max angular momentum in pseudopotentials (lmaxx) =  4
     file Ba.pbesol-spn-kjpaw_psl.1.0.0.UPF: wavefunction(s)  5S 6S renormalized
     file O.pbesol-n-kjpaw_psl.0.1.UPF: wavefunction(s)  2P renormalized
     Message from routine setup:
     using ibrav=0 with symmetry is DISCOURAGED, use correct ibrav instead

     K-points division:     npool     =       2
     R & G space division:  proc/nbgrp/npool/nimage =      10
     Subspace diagonalization in iterative solution of the eigenvalue problem:
     a serial algorithm will be used


     Parallelization info
     --------------------
     sticks:   dense  smooth     PW     G-vecs:    dense   smooth      PW
     Min         224      88     27                 8096     2036     339
     Max         225      90     28                 8101     2039     342
     Sum        2249     889    277                80989    20377    3407

     Using Slab Decomposition



     bravais-lattice index     =            0
     lattice parameter (alat)  =       8.4365  a.u.
     unit-cell volume          =     600.4730 (a.u.)^3
     number of atoms/cell      =            5
     number of atomic types    =            3
     number of electrons       =        38.00
     number of Kohn-Sham states=           23
     kinetic-energy cutoff     =      40.0000  Ry
     charge density cutoff     =     400.0000  Ry
     scf convergence threshold =      1.0E-07
     mixing beta               =       0.4000
     number of iterations used =            8  plain     mixing
     Exchange-correlation= SLA  PW   PSX  PSC
                           (   1   4  10   8   0   0   0)

     celldm(1)=   8.436542  celldm(2)=   0.000000  celldm(3)=   0.000000
     celldm(4)=   0.000000  celldm(5)=   0.000000  celldm(6)=   0.000000

     crystal axes: (cart. coord. in units of alat)
               a(1) = (   1.000000   0.000000   0.000000 )  
               a(2) = (   0.000000   1.000000   0.000000 )  
               a(3) = (   0.000000   0.000000   1.000000 )  

     reciprocal axes: (cart. coord. in units 2 pi/alat)
               b(1) = (  1.000000  0.000000  0.000000 )  
               b(2) = (  0.000000  1.000000  0.000000 )  
               b(3) = (  0.000000  0.000000  1.000000 )  


     PseudoPot. # 1 for Ba read from file:
     ./pseudo/Ba.pbesol-spn-kjpaw_psl.1.0.0.UPF
     MD5 check sum: f28c4a63d325c1a0d00fd3a4f19b8d73
     Pseudo is Projector augmented-wave + core cor, Zval = 10.0
     Generated using "atomic" code by A. Dal Corso  v.6.0 svn rev. 13079
     Shape of augmentation charge: PSQ
     Using radial grid of 1251 points,  7 beta functions with: 
                l(1) =   0
                l(2) =   0
                l(3) =   0
                l(4) =   1
                l(5) =   1
                l(6) =   2
                l(7) =   2
     Q(r) pseudized with 0 coefficients 


     PseudoPot. # 2 for Ca read from file:
     ./pseudo/ca_pbesol_v1.uspp.F.UPF
     MD5 check sum: 0533207b58cddeaa036efa5b63902087
     Pseudo is Ultrasoft + core correction, Zval = 10.0
     Generated by new atomic code, or converted to UPF format
     Using radial grid of  845 points,  6 beta functions with: 
                l(1) =   0
                l(2) =   0
                l(3) =   1
                l(4) =   1
                l(5) =   2
                l(6) =   2
     Q(r) pseudized with  8 coefficients,  rinner =    1.500   1.500   1.500
                                                       1.500   1.500

     PseudoPot. # 3 for O  read from file:
     ./pseudo/O.pbesol-n-kjpaw_psl.0.1.UPF
     MD5 check sum: 81d73d1479e654e5638b0319f0d6c2c7
     Pseudo is Projector augmented-wave + core cor, Zval =  6.0
     Generated using "atomic" code by A. Dal Corso  v.6.0 svn rev. 13079
     Shape of augmentation charge: BESSEL
     Using radial grid of 1095 points,  4 beta functions with: 
                l(1) =   0
                l(2) =   0
                l(3) =   1
                l(4) =   1
     Q(r) pseudized with 0 coefficients 


     atomic species   valence    mass     pseudopotential
     Ba               10.00   137.32700     Ba( 1.00)
     Ca               10.00    40.07800     Ca( 1.00)
     O                 6.00    15.99940     O ( 1.00)

     48 Sym. Ops., with inversion, found


                                    s                        frac. trans.

      isym =  1     identity                                     

 cryst.   s( 1) = (     1          0          0      )
                  (     0          1          0      )
                  (     0          0          1      )

 cart.    s( 1) = (  1.0000000  0.0000000  0.0000000 )
                  (  0.0000000  1.0000000  0.0000000 )
                  (  0.0000000  0.0000000  1.0000000 )


      isym =  2     180 deg rotation - cart. axis [0,0,1]        

 cryst.   s( 2) = (    -1          0          0      )
                  (     0         -1          0      )
                  (     0          0          1      )

 cart.    s( 2) = ( -1.0000000  0.0000000  0.0000000 )
                  (  0.0000000 -1.0000000  0.0000000 )
                  (  0.0000000  0.0000000  1.0000000 )


      isym =  3     180 deg rotation - cart. axis [0,1,0]        

 cryst.   s( 3) = (    -1          0          0      )
                  (     0          1          0      )
                  (     0          0         -1      )

 cart.    s( 3) = ( -1.0000000  0.0000000  0.0000000 )
                  (  0.0000000  1.0000000  0.0000000 )
                  (  0.0000000  0.0000000 -1.0000000 )


      isym =  4     180 deg rotation - cart. axis [1,0,0]        

 cryst.   s( 4) = (     1          0          0      )
                  (     0         -1          0      )
                  (     0          0         -1      )

 cart.    s( 4) = (  1.0000000  0.0000000  0.0000000 )
                  (  0.0000000 -1.0000000  0.0000000 )
                  (  0.0000000  0.0000000 -1.0000000 )


      isym =  5     180 deg rotation - cart. axis [1,1,0]        

 cryst.   s( 5) = (     0          1          0      )
                  (     1          0          0      )
                  (     0          0         -1      )

 cart.    s( 5) = (  0.0000000  1.0000000  0.0000000 )
                  (  1.0000000  0.0000000  0.0000000 )
                  (  0.0000000  0.0000000 -1.0000000 )


      isym =  6     180 deg rotation - cart. axis [1,-1,0]       

 cryst.   s( 6) = (     0         -1          0      )
                  (    -1          0          0      )
                  (     0          0         -1      )

 cart.    s( 6) = (  0.0000000 -1.0000000  0.0000000 )
                  ( -1.0000000  0.0000000  0.0000000 )
                  (  0.0000000  0.0000000 -1.0000000 )


      isym =  7      90 deg rotation - cart. axis [0,0,-1]       

 cryst.   s( 7) = (     0         -1          0      )
                  (     1          0          0      )
                  (     0          0          1      )

 cart.    s( 7) = (  0.0000000  1.0000000  0.0000000 )
                  ( -1.0000000  0.0000000  0.0000000 )
                  (  0.0000000  0.0000000  1.0000000 )


      isym =  8      90 deg rotation - cart. axis [0,0,1]        

 cryst.   s( 8) = (     0          1          0      )
                  (    -1          0          0      )
                  (     0          0          1      )

 cart.    s( 8) = (  0.0000000 -1.0000000  0.0000000 )
                  (  1.0000000  0.0000000  0.0000000 )
                  (  0.0000000  0.0000000  1.0000000 )


      isym =  9     180 deg rotation - cart. axis [1,0,1]        

 cryst.   s( 9) = (     0          0          1      )
                  (     0         -1          0      )
                  (     1          0          0      )

 cart.    s( 9) = (  0.0000000  0.0000000  1.0000000 )
                  (  0.0000000 -1.0000000  0.0000000 )
                  (  1.0000000  0.0000000  0.0000000 )


      isym = 10     180 deg rotation - cart. axis [-1,0,1]       

 cryst.   s(10) = (     0          0         -1      )
                  (     0         -1          0      )
                  (    -1          0          0      )

 cart.    s(10) = (  0.0000000  0.0000000 -1.0000000 )
                  (  0.0000000 -1.0000000  0.0000000 )
                  ( -1.0000000  0.0000000  0.0000000 )


      isym = 11      90 deg rotation - cart. axis [0,1,0]        

 cryst.   s(11) = (     0          0         -1      )
                  (     0          1          0      )
                  (     1          0          0      )

 cart.    s(11) = (  0.0000000  0.0000000  1.0000000 )
                  (  0.0000000  1.0000000  0.0000000 )
                  ( -1.0000000  0.0000000  0.0000000 )


      isym = 12      90 deg rotation - cart. axis [0,-1,0]       

 cryst.   s(12) = (     0          0          1      )
                  (     0          1          0      )
                  (    -1          0          0      )

 cart.    s(12) = (  0.0000000  0.0000000 -1.0000000 )
                  (  0.0000000  1.0000000  0.0000000 )
                  (  1.0000000  0.0000000  0.0000000 )


      isym = 13     180 deg rotation - cart. axis [0,1,1]        

 cryst.   s(13) = (    -1          0          0      )
                  (     0          0          1      )
                  (     0          1          0      )

 cart.    s(13) = ( -1.0000000  0.0000000  0.0000000 )
                  (  0.0000000  0.0000000  1.0000000 )
                  (  0.0000000  1.0000000  0.0000000 )


      isym = 14     180 deg rotation - cart. axis [0,1,-1]       

 cryst.   s(14) = (    -1          0          0      )
                  (     0          0         -1      )
                  (     0         -1          0      )

 cart.    s(14) = ( -1.0000000  0.0000000  0.0000000 )
                  (  0.0000000  0.0000000 -1.0000000 )
                  (  0.0000000 -1.0000000  0.0000000 )


      isym = 15      90 deg rotation - cart. axis [-1,0,0]       

 cryst.   s(15) = (     1          0          0      )
                  (     0          0         -1      )
                  (     0          1          0      )

 cart.    s(15) = (  1.0000000  0.0000000  0.0000000 )
                  (  0.0000000  0.0000000  1.0000000 )
                  (  0.0000000 -1.0000000  0.0000000 )


      isym = 16      90 deg rotation - cart. axis [1,0,0]        

 cryst.   s(16) = (     1          0          0      )
                  (     0          0          1      )
                  (     0         -1          0      )

 cart.    s(16) = (  1.0000000  0.0000000  0.0000000 )
                  (  0.0000000  0.0000000 -1.0000000 )
                  (  0.0000000  1.0000000  0.0000000 )


      isym = 17     120 deg rotation - cart. axis [-1,-1,-1]     

 cryst.   s(17) = (     0          0          1      )
                  (     1          0          0      )
                  (     0          1          0      )

 cart.    s(17) = (  0.0000000  1.0000000  0.0000000 )
                  (  0.0000000  0.0000000  1.0000000 )
                  (  1.0000000  0.0000000  0.0000000 )


      isym = 18     120 deg rotation - cart. axis [-1,1,1]       

 cryst.   s(18) = (     0          0         -1      )
                  (    -1          0          0      )
                  (     0          1          0      )

 cart.    s(18) = (  0.0000000 -1.0000000  0.0000000 )
                  (  0.0000000  0.0000000  1.0000000 )
                  ( -1.0000000  0.0000000  0.0000000 )


      isym = 19     120 deg rotation - cart. axis [1,1,-1]       

 cryst.   s(19) = (     0          0         -1      )
                  (     1          0          0      )
                  (     0         -1          0      )

 cart.    s(19) = (  0.0000000  1.0000000  0.0000000 )
                  (  0.0000000  0.0000000 -1.0000000 )
                  ( -1.0000000  0.0000000  0.0000000 )


      isym = 20     120 deg rotation - cart. axis [1,-1,1]       

 cryst.   s(20) = (     0          0          1      )
                  (    -1          0          0      )
                  (     0         -1          0      )

 cart.    s(20) = (  0.0000000 -1.0000000  0.0000000 )
                  (  0.0000000  0.0000000 -1.0000000 )
                  (  1.0000000  0.0000000  0.0000000 )


      isym = 21     120 deg rotation - cart. axis [1,1,1]        

 cryst.   s(21) = (     0          1          0      )
                  (     0          0          1      )
                  (     1          0          0      )

 cart.    s(21) = (  0.0000000  0.0000000  1.0000000 )
                  (  1.0000000  0.0000000  0.0000000 )
                  (  0.0000000  1.0000000  0.0000000 )


      isym = 22     120 deg rotation - cart. axis [-1,1,-1]      

 cryst.   s(22) = (     0         -1          0      )
                  (     0          0         -1      )
                  (     1          0          0      )

 cart.    s(22) = (  0.0000000  0.0000000  1.0000000 )
                  ( -1.0000000  0.0000000  0.0000000 )
                  (  0.0000000 -1.0000000  0.0000000 )


      isym = 23     120 deg rotation - cart. axis [1,-1,-1]      

 cryst.   s(23) = (     0         -1          0      )
                  (     0          0          1      )
                  (    -1          0          0      )

 cart.    s(23) = (  0.0000000  0.0000000 -1.0000000 )
                  ( -1.0000000  0.0000000  0.0000000 )
                  (  0.0000000  1.0000000  0.0000000 )


      isym = 24     120 deg rotation - cart. axis [-1,-1,1]      

 cryst.   s(24) = (     0          1          0      )
                  (     0          0         -1      )
                  (    -1          0          0      )

 cart.    s(24) = (  0.0000000  0.0000000 -1.0000000 )
                  (  1.0000000  0.0000000  0.0000000 )
                  (  0.0000000 -1.0000000  0.0000000 )


      isym = 25     inversion                                    

 cryst.   s(25) = (    -1          0          0      )
                  (     0         -1          0      )
                  (     0          0         -1      )

 cart.    s(25) = ( -1.0000000  0.0000000  0.0000000 )
                  (  0.0000000 -1.0000000  0.0000000 )
                  (  0.0000000  0.0000000 -1.0000000 )


      isym = 26     inv. 180 deg rotation - cart. axis [0,0,1]   

 cryst.   s(26) = (     1          0          0      )
                  (     0          1          0      )
                  (     0          0         -1      )

 cart.    s(26) = (  1.0000000  0.0000000  0.0000000 )
                  (  0.0000000  1.0000000  0.0000000 )
                  (  0.0000000  0.0000000 -1.0000000 )


      isym = 27     inv. 180 deg rotation - cart. axis [0,1,0]   

 cryst.   s(27) = (     1          0          0      )
                  (     0         -1          0      )
                  (     0          0          1      )

 cart.    s(27) = (  1.0000000  0.0000000  0.0000000 )
                  (  0.0000000 -1.0000000  0.0000000 )
                  (  0.0000000  0.0000000  1.0000000 )


      isym = 28     inv. 180 deg rotation - cart. axis [1,0,0]   

 cryst.   s(28) = (    -1          0          0      )
                  (     0          1          0      )
                  (     0          0          1      )

 cart.    s(28) = ( -1.0000000  0.0000000  0.0000000 )
                  (  0.0000000  1.0000000  0.0000000 )
                  (  0.0000000  0.0000000  1.0000000 )


      isym = 29     inv. 180 deg rotation - cart. axis [1,1,0]   

 cryst.   s(29) = (     0         -1          0      )
                  (    -1          0          0      )
                  (     0          0          1      )

 cart.    s(29) = (  0.0000000 -1.0000000  0.0000000 )
                  ( -1.0000000  0.0000000  0.0000000 )
                  (  0.0000000  0.0000000  1.0000000 )


      isym = 30     inv. 180 deg rotation - cart. axis [1,-1,0]  

 cryst.   s(30) = (     0          1          0      )
                  (     1          0          0      )
                  (     0          0          1      )

 cart.    s(30) = (  0.0000000  1.0000000  0.0000000 )
                  (  1.0000000  0.0000000  0.0000000 )
                  (  0.0000000  0.0000000  1.0000000 )


      isym = 31     inv.  90 deg rotation - cart. axis [0,0,-1]  

 cryst.   s(31) = (     0          1          0      )
                  (    -1          0          0      )
                  (     0          0         -1      )

 cart.    s(31) = (  0.0000000 -1.0000000  0.0000000 )
                  (  1.0000000  0.0000000  0.0000000 )
                  (  0.0000000  0.0000000 -1.0000000 )


      isym = 32     inv.  90 deg rotation - cart. axis [0,0,1]   

 cryst.   s(32) = (     0         -1          0      )
                  (     1          0          0      )
                  (     0          0         -1      )

 cart.    s(32) = (  0.0000000  1.0000000  0.0000000 )
                  ( -1.0000000  0.0000000  0.0000000 )
                  (  0.0000000  0.0000000 -1.0000000 )


      isym = 33     inv. 180 deg rotation - cart. axis [1,0,1]   

 cryst.   s(33) = (     0          0         -1      )
                  (     0          1          0      )
                  (    -1          0          0      )

 cart.    s(33) = (  0.0000000  0.0000000 -1.0000000 )
                  (  0.0000000  1.0000000  0.0000000 )
                  ( -1.0000000  0.0000000  0.0000000 )


      isym = 34     inv. 180 deg rotation - cart. axis [-1,0,1]  

 cryst.   s(34) = (     0          0          1      )
                  (     0          1          0      )
                  (     1          0          0      )

 cart.    s(34) = (  0.0000000  0.0000000  1.0000000 )
                  (  0.0000000  1.0000000  0.0000000 )
                  (  1.0000000  0.0000000  0.0000000 )


      isym = 35     inv.  90 deg rotation - cart. axis [0,1,0]   

 cryst.   s(35) = (     0          0          1      )
                  (     0         -1          0      )
                  (    -1          0          0      )

 cart.    s(35) = (  0.0000000  0.0000000 -1.0000000 )
                  (  0.0000000 -1.0000000  0.0000000 )
                  (  1.0000000  0.0000000  0.0000000 )


      isym = 36     inv.  90 deg rotation - cart. axis [0,-1,0]  

 cryst.   s(36) = (     0          0         -1      )
                  (     0         -1          0      )
                  (     1          0          0      )

 cart.    s(36) = (  0.0000000  0.0000000  1.0000000 )
                  (  0.0000000 -1.0000000  0.0000000 )
                  ( -1.0000000  0.0000000  0.0000000 )


      isym = 37     inv. 180 deg rotation - cart. axis [0,1,1]   

 cryst.   s(37) = (     1          0          0      )
                  (     0          0         -1      )
                  (     0         -1          0      )

 cart.    s(37) = (  1.0000000  0.0000000  0.0000000 )
                  (  0.0000000  0.0000000 -1.0000000 )
                  (  0.0000000 -1.0000000  0.0000000 )


      isym = 38     inv. 180 deg rotation - cart. axis [0,1,-1]  

 cryst.   s(38) = (     1          0          0      )
                  (     0          0          1      )
                  (     0          1          0      )

 cart.    s(38) = (  1.0000000  0.0000000  0.0000000 )
                  (  0.0000000  0.0000000  1.0000000 )
                  (  0.0000000  1.0000000  0.0000000 )


      isym = 39     inv.  90 deg rotation - cart. axis [-1,0,0]  

 cryst.   s(39) = (    -1          0          0      )
                  (     0          0          1      )
                  (     0         -1          0      )

 cart.    s(39) = ( -1.0000000  0.0000000  0.0000000 )
                  (  0.0000000  0.0000000 -1.0000000 )
                  (  0.0000000  1.0000000  0.0000000 )


      isym = 40     inv.  90 deg rotation - cart. axis [1,0,0]   

 cryst.   s(40) = (    -1          0          0      )
                  (     0          0         -1      )
                  (     0          1          0      )

 cart.    s(40) = ( -1.0000000  0.0000000  0.0000000 )
                  (  0.0000000  0.0000000  1.0000000 )
                  (  0.0000000 -1.0000000  0.0000000 )


      isym = 41     inv. 120 deg rotation - cart. axis [-1,-1,-1]

 cryst.   s(41) = (     0          0         -1      )
                  (    -1          0          0      )
                  (     0         -1          0      )

 cart.    s(41) = (  0.0000000 -1.0000000  0.0000000 )
                  (  0.0000000  0.0000000 -1.0000000 )
                  ( -1.0000000  0.0000000  0.0000000 )


      isym = 42     inv. 120 deg rotation - cart. axis [-1,1,1]  

 cryst.   s(42) = (     0          0          1      )
                  (     1          0          0      )
                  (     0         -1          0      )

 cart.    s(42) = (  0.0000000  1.0000000  0.0000000 )
                  (  0.0000000  0.0000000 -1.0000000 )
                  (  1.0000000  0.0000000  0.0000000 )


      isym = 43     inv. 120 deg rotation - cart. axis [1,1,-1]  

 cryst.   s(43) = (     0          0          1      )
                  (    -1          0          0      )
                  (     0          1          0      )

 cart.    s(43) = (  0.0000000 -1.0000000  0.0000000 )
                  (  0.0000000  0.0000000  1.0000000 )
                  (  1.0000000  0.0000000  0.0000000 )


      isym = 44     inv. 120 deg rotation - cart. axis [1,-1,1]  

 cryst.   s(44) = (     0          0         -1      )
                  (     1          0          0      )
                  (     0          1          0      )

 cart.    s(44) = (  0.0000000  1.0000000  0.0000000 )
                  (  0.0000000  0.0000000  1.0000000 )
                  ( -1.0000000  0.0000000  0.0000000 )


      isym = 45     inv. 120 deg rotation - cart. axis [1,1,1]   

 cryst.   s(45) = (     0         -1          0      )
                  (     0          0         -1      )
                  (    -1          0          0      )

 cart.    s(45) = (  0.0000000  0.0000000 -1.0000000 )
                  ( -1.0000000  0.0000000  0.0000000 )
                  (  0.0000000 -1.0000000  0.0000000 )


      isym = 46     inv. 120 deg rotation - cart. axis [-1,1,-1] 

 cryst.   s(46) = (     0          1          0      )
                  (     0          0          1      )
                  (    -1          0          0      )

 cart.    s(46) = (  0.0000000  0.0000000 -1.0000000 )
                  (  1.0000000  0.0000000  0.0000000 )
                  (  0.0000000  1.0000000  0.0000000 )


      isym = 47     inv. 120 deg rotation - cart. axis [1,-1,-1] 

 cryst.   s(47) = (     0          1          0      )
                  (     0          0         -1      )
                  (     1          0          0      )

 cart.    s(47) = (  0.0000000  0.0000000  1.0000000 )
                  (  1.0000000  0.0000000  0.0000000 )
                  (  0.0000000 -1.0000000  0.0000000 )


      isym = 48     inv. 120 deg rotation - cart. axis [-1,-1,1] 

 cryst.   s(48) = (     0         -1          0      )
                  (     0          0          1      )
                  (     1          0          0      )

 cart.    s(48) = (  0.0000000  0.0000000  1.0000000 )
                  ( -1.0000000  0.0000000  0.0000000 )
                  (  0.0000000  1.0000000  0.0000000 )


   Cartesian axes

     site n.     atom                  positions (alat units)
         1        Ba     tau(   1) = (   0.0000000   0.0000000   0.0000000  )
         2        Ca     tau(   2) = (   0.5000000   0.5000000   0.5000000  )
         3        O      tau(   3) = (   0.5000000   0.5000000   0.0000000  )
         4        O      tau(   4) = (   0.5000000   0.0000000   0.5000000  )
         5        O      tau(   5) = (   0.0000000   0.5000000   0.5000000  )

   Crystallographic axes

     site n.     atom                  positions (cryst. coord.)
         1        Ba     tau(   1) = (  0.0000000  0.0000000  0.0000000  )
         2        Ca     tau(   2) = (  0.5000000  0.5000000  0.5000000  )
         3        O      tau(   3) = (  0.5000000  0.5000000  0.0000000  )
         4        O      tau(   4) = (  0.5000000  0.0000000  0.5000000  )
         5        O      tau(   5) = (  0.0000000  0.5000000  0.5000000  )

     number of k points=  1540  Marzari-Vanderbilt smearing, width (Ry)=  0.0200
                       cart. coord. in units 2pi/alat
        k(    1) = (   0.0125000   0.0125000   0.0125000), wk =   0.0002500
        k(    2) = (   0.0125000   0.0125000   0.0375000), wk =   0.0007500
        k(    3) = (   0.0125000   0.0125000   0.0625000), wk =   0.0007500
        k(    4) = (   0.0125000   0.0125000   0.0875000), wk =   0.0007500
        k(    5) = (   0.0125000   0.0125000   0.1125000), wk =   0.0007500
        k(    6) = (   0.0125000   0.0125000   0.1375000), wk =   0.0007500
        k(    7) = (   0.0125000   0.0125000   0.1625000), wk =   0.0007500
        k(    8) = (   0.0125000   0.0125000   0.1875000), wk =   0.0007500
        k(    9) = (   0.0125000   0.0125000   0.2125000), wk =   0.0007500
        k(   10) = (   0.0125000   0.0125000   0.2375000), wk =   0.0007500
        k(   11) = (   0.0125000   0.0125000   0.2625000), wk =   0.0007500
        k(   12) = (   0.0125000   0.0125000   0.2875000), wk =   0.0007500
        k(   13) = (   0.0125000   0.0125000   0.3125000), wk =   0.0007500
        k(   14) = (   0.0125000   0.0125000   0.3375000), wk =   0.0007500
        k(   15) = (   0.0125000   0.0125000   0.3625000), wk =   0.0007500
        k(   16) = (   0.0125000   0.0125000   0.3875000), wk =   0.0007500
        k(   17) = (   0.0125000   0.0125000   0.4125000), wk =   0.0007500
        k(   18) = (   0.0125000   0.0125000   0.4375000), wk =   0.0007500
        k(   19) = (   0.0125000   0.0125000   0.4625000), wk =   0.0007500
        k(   20) = (   0.0125000   0.0125000   0.4875000), wk =   0.0007500
        k(   21) = (   0.0125000   0.0375000   0.0375000), wk =   0.0007500
        k(   22) = (   0.0125000   0.0375000   0.0625000), wk =   0.0015000
        k(   23) = (   0.0125000   0.0375000   0.0875000), wk =   0.0015000
        k(   24) = (   0.0125000   0.0375000   0.1125000), wk =   0.0015000
        k(   25) = (   0.0125000   0.0375000   0.1375000), wk =   0.0015000
        k(   26) = (   0.0125000   0.0375000   0.1625000), wk =   0.0015000
        k(   27) = (   0.0125000   0.0375000   0.1875000), wk =   0.0015000
        k(   28) = (   0.0125000   0.0375000   0.2125000), wk =   0.0015000
        k(   29) = (   0.0125000   0.0375000   0.2375000), wk =   0.0015000
        k(   30) = (   0.0125000   0.0375000   0.2625000), wk =   0.0015000
        k(   31) = (   0.0125000   0.0375000   0.2875000), wk =   0.0015000
        k(   32) = (   0.0125000   0.0375000   0.3125000), wk =   0.0015000
        k(   33) = (   0.0125000   0.0375000   0.3375000), wk =   0.0015000
        k(   34) = (   0.0125000   0.0375000   0.3625000), wk =   0.0015000
        k(   35) = (   0.0125000   0.0375000   0.3875000), wk =   0.0015000
        k(   36) = (   0.0125000   0.0375000   0.4125000), wk =   0.0015000
        k(   37) = (   0.0125000   0.0375000   0.4375000), wk =   0.0015000
        k(   38) = (   0.0125000   0.0375000   0.4625000), wk =   0.0015000
        k(   39) = (   0.0125000   0.0375000   0.4875000), wk =   0.0015000
        k(   40) = (   0.0125000   0.0625000   0.0625000), wk =   0.0007500
        k(   41) = (   0.0125000   0.0625000   0.0875000), wk =   0.0015000
        k(   42) = (   0.0125000   0.0625000   0.1125000), wk =   0.0015000
        k(   43) = (   0.0125000   0.0625000   0.1375000), wk =   0.0015000
        k(   44) = (   0.0125000   0.0625000   0.1625000), wk =   0.0015000
        k(   45) = (   0.0125000   0.0625000   0.1875000), wk =   0.0015000
        k(   46) = (   0.0125000   0.0625000   0.2125000), wk =   0.0015000
        k(   47) = (   0.0125000   0.0625000   0.2375000), wk =   0.0015000
        k(   48) = (   0.0125000   0.0625000   0.2625000), wk =   0.0015000
        k(   49) = (   0.0125000   0.0625000   0.2875000), wk =   0.0015000
        k(   50) = (   0.0125000   0.0625000   0.3125000), wk =   0.0015000
        k(   51) = (   0.0125000   0.0625000   0.3375000), wk =   0.0015000
        k(   52) = (   0.0125000   0.0625000   0.3625000), wk =   0.0015000
        k(   53) = (   0.0125000   0.0625000   0.3875000), wk =   0.0015000
        k(   54) = (   0.0125000   0.0625000   0.4125000), wk =   0.0015000
        k(   55) = (   0.0125000   0.0625000   0.4375000), wk =   0.0015000
        k(   56) = (   0.0125000   0.0625000   0.4625000), wk =   0.0015000
        k(   57) = (   0.0125000   0.0625000   0.4875000), wk =   0.0015000
        k(   58) = (   0.0125000   0.0875000   0.0875000), wk =   0.0007500
        k(   59) = (   0.0125000   0.0875000   0.1125000), wk =   0.0015000
        k(   60) = (   0.0125000   0.0875000   0.1375000), wk =   0.0015000
        k(   61) = (   0.0125000   0.0875000   0.1625000), wk =   0.0015000
        k(   62) = (   0.0125000   0.0875000   0.1875000), wk =   0.0015000
        k(   63) = (   0.0125000   0.0875000   0.2125000), wk =   0.0015000
        k(   64) = (   0.0125000   0.0875000   0.2375000), wk =   0.0015000
        k(   65) = (   0.0125000   0.0875000   0.2625000), wk =   0.0015000
        k(   66) = (   0.0125000   0.0875000   0.2875000), wk =   0.0015000
        k(   67) = (   0.0125000   0.0875000   0.3125000), wk =   0.0015000
        k(   68) = (   0.0125000   0.0875000   0.3375000), wk =   0.0015000
        k(   69) = (   0.0125000   0.0875000   0.3625000), wk =   0.0015000
        k(   70) = (   0.0125000   0.0875000   0.3875000), wk =   0.0015000
        k(   71) = (   0.0125000   0.0875000   0.4125000), wk =   0.0015000
        k(   72) = (   0.0125000   0.0875000   0.4375000), wk =   0.0015000
        k(   73) = (   0.0125000   0.0875000   0.4625000), wk =   0.0015000
        k(   74) = (   0.0125000   0.0875000   0.4875000), wk =   0.0015000
        k(   75) = (   0.0125000   0.1125000   0.1125000), wk =   0.0007500
        k(   76) = (   0.0125000   0.1125000   0.1375000), wk =   0.0015000
        k(   77) = (   0.0125000   0.1125000   0.1625000), wk =   0.0015000
        k(   78) = (   0.0125000   0.1125000   0.1875000), wk =   0.0015000
        k(   79) = (   0.0125000   0.1125000   0.2125000), wk =   0.0015000
        k(   80) = (   0.0125000   0.1125000   0.2375000), wk =   0.0015000
        k(   81) = (   0.0125000   0.1125000   0.2625000), wk =   0.0015000
        k(   82) = (   0.0125000   0.1125000   0.2875000), wk =   0.0015000
        k(   83) = (   0.0125000   0.1125000   0.3125000), wk =   0.0015000
        k(   84) = (   0.0125000   0.1125000   0.3375000), wk =   0.0015000
        k(   85) = (   0.0125000   0.1125000   0.3625000), wk =   0.0015000
        k(   86) = (   0.0125000   0.1125000   0.3875000), wk =   0.0015000
        k(   87) = (   0.0125000   0.1125000   0.4125000), wk =   0.0015000
        k(   88) = (   0.0125000   0.1125000   0.4375000), wk =   0.0015000
        k(   89) = (   0.0125000   0.1125000   0.4625000), wk =   0.0015000
        k(   90) = (   0.0125000   0.1125000   0.4875000), wk =   0.0015000
        k(   91) = (   0.0125000   0.1375000   0.1375000), wk =   0.0007500
        k(   92) = (   0.0125000   0.1375000   0.1625000), wk =   0.0015000
        k(   93) = (   0.0125000   0.1375000   0.1875000), wk =   0.0015000
        k(   94) = (   0.0125000   0.1375000   0.2125000), wk =   0.0015000
        k(   95) = (   0.0125000   0.1375000   0.2375000), wk =   0.0015000
        k(   96) = (   0.0125000   0.1375000   0.2625000), wk =   0.0015000
        k(   97) = (   0.0125000   0.1375000   0.2875000), wk =   0.0015000
        k(   98) = (   0.0125000   0.1375000   0.3125000), wk =   0.0015000
        k(   99) = (   0.0125000   0.1375000   0.3375000), wk =   0.0015000
        k(  100) = (   0.0125000   0.1375000   0.3625000), wk =   0.0015000
        k(  101) = (   0.0125000   0.1375000   0.3875000), wk =   0.0015000
        k(  102) = (   0.0125000   0.1375000   0.4125000), wk =   0.0015000
        k(  103) = (   0.0125000   0.1375000   0.4375000), wk =   0.0015000
        k(  104) = (   0.0125000   0.1375000   0.4625000), wk =   0.0015000
        k(  105) = (   0.0125000   0.1375000   0.4875000), wk =   0.0015000
        k(  106) = (   0.0125000   0.1625000   0.1625000), wk =   0.0007500
        k(  107) = (   0.0125000   0.1625000   0.1875000), wk =   0.0015000
        k(  108) = (   0.0125000   0.1625000   0.2125000), wk =   0.0015000
        k(  109) = (   0.0125000   0.1625000   0.2375000), wk =   0.0015000
        k(  110) = (   0.0125000   0.1625000   0.2625000), wk =   0.0015000
        k(  111) = (   0.0125000   0.1625000   0.2875000), wk =   0.0015000
        k(  112) = (   0.0125000   0.1625000   0.3125000), wk =   0.0015000
        k(  113) = (   0.0125000   0.1625000   0.3375000), wk =   0.0015000
        k(  114) = (   0.0125000   0.1625000   0.3625000), wk =   0.0015000
        k(  115) = (   0.0125000   0.1625000   0.3875000), wk =   0.0015000
        k(  116) = (   0.0125000   0.1625000   0.4125000), wk =   0.0015000
        k(  117) = (   0.0125000   0.1625000   0.4375000), wk =   0.0015000
        k(  118) = (   0.0125000   0.1625000   0.4625000), wk =   0.0015000
        k(  119) = (   0.0125000   0.1625000   0.4875000), wk =   0.0015000
        k(  120) = (   0.0125000   0.1875000   0.1875000), wk =   0.0007500
        k(  121) = (   0.0125000   0.1875000   0.2125000), wk =   0.0015000
        k(  122) = (   0.0125000   0.1875000   0.2375000), wk =   0.0015000
        k(  123) = (   0.0125000   0.1875000   0.2625000), wk =   0.0015000
        k(  124) = (   0.0125000   0.1875000   0.2875000), wk =   0.0015000
        k(  125) = (   0.0125000   0.1875000   0.3125000), wk =   0.0015000
        k(  126) = (   0.0125000   0.1875000   0.3375000), wk =   0.0015000
        k(  127) = (   0.0125000   0.1875000   0.3625000), wk =   0.0015000
        k(  128) = (   0.0125000   0.1875000   0.3875000), wk =   0.0015000
        k(  129) = (   0.0125000   0.1875000   0.4125000), wk =   0.0015000
        k(  130) = (   0.0125000   0.1875000   0.4375000), wk =   0.0015000
        k(  131) = (   0.0125000   0.1875000   0.4625000), wk =   0.0015000
        k(  132) = (   0.0125000   0.1875000   0.4875000), wk =   0.0015000
        k(  133) = (   0.0125000   0.2125000   0.2125000), wk =   0.0007500
        k(  134) = (   0.0125000   0.2125000   0.2375000), wk =   0.0015000
        k(  135) = (   0.0125000   0.2125000   0.2625000), wk =   0.0015000
        k(  136) = (   0.0125000   0.2125000   0.2875000), wk =   0.0015000
        k(  137) = (   0.0125000   0.2125000   0.3125000), wk =   0.0015000
        k(  138) = (   0.0125000   0.2125000   0.3375000), wk =   0.0015000
        k(  139) = (   0.0125000   0.2125000   0.3625000), wk =   0.0015000
        k(  140) = (   0.0125000   0.2125000   0.3875000), wk =   0.0015000
        k(  141) = (   0.0125000   0.2125000   0.4125000), wk =   0.0015000
        k(  142) = (   0.0125000   0.2125000   0.4375000), wk =   0.0015000
        k(  143) = (   0.0125000   0.2125000   0.4625000), wk =   0.0015000
        k(  144) = (   0.0125000   0.2125000   0.4875000), wk =   0.0015000
        k(  145) = (   0.0125000   0.2375000   0.2375000), wk =   0.0007500
        k(  146) = (   0.0125000   0.2375000   0.2625000), wk =   0.0015000
        k(  147) = (   0.0125000   0.2375000   0.2875000), wk =   0.0015000
        k(  148) = (   0.0125000   0.2375000   0.3125000), wk =   0.0015000
        k(  149) = (   0.0125000   0.2375000   0.3375000), wk =   0.0015000
        k(  150) = (   0.0125000   0.2375000   0.3625000), wk =   0.0015000
        k(  151) = (   0.0125000   0.2375000   0.3875000), wk =   0.0015000
        k(  152) = (   0.0125000   0.2375000   0.4125000), wk =   0.0015000
        k(  153) = (   0.0125000   0.2375000   0.4375000), wk =   0.0015000
        k(  154) = (   0.0125000   0.2375000   0.4625000), wk =   0.0015000
        k(  155) = (   0.0125000   0.2375000   0.4875000), wk =   0.0015000
        k(  156) = (   0.0125000   0.2625000   0.2625000), wk =   0.0007500
        k(  157) = (   0.0125000   0.2625000   0.2875000), wk =   0.0015000
        k(  158) = (   0.0125000   0.2625000   0.3125000), wk =   0.0015000
        k(  159) = (   0.0125000   0.2625000   0.3375000), wk =   0.0015000
        k(  160) = (   0.0125000   0.2625000   0.3625000), wk =   0.0015000
        k(  161) = (   0.0125000   0.2625000   0.3875000), wk =   0.0015000
        k(  162) = (   0.0125000   0.2625000   0.4125000), wk =   0.0015000
        k(  163) = (   0.0125000   0.2625000   0.4375000), wk =   0.0015000
        k(  164) = (   0.0125000   0.2625000   0.4625000), wk =   0.0015000
        k(  165) = (   0.0125000   0.2625000   0.4875000), wk =   0.0015000
        k(  166) = (   0.0125000   0.2875000   0.2875000), wk =   0.0007500
        k(  167) = (   0.0125000   0.2875000   0.3125000), wk =   0.0015000
        k(  168) = (   0.0125000   0.2875000   0.3375000), wk =   0.0015000
        k(  169) = (   0.0125000   0.2875000   0.3625000), wk =   0.0015000
        k(  170) = (   0.0125000   0.2875000   0.3875000), wk =   0.0015000
        k(  171) = (   0.0125000   0.2875000   0.4125000), wk =   0.0015000
        k(  172) = (   0.0125000   0.2875000   0.4375000), wk =   0.0015000
        k(  173) = (   0.0125000   0.2875000   0.4625000), wk =   0.0015000
        k(  174) = (   0.0125000   0.2875000   0.4875000), wk =   0.0015000
        k(  175) = (   0.0125000   0.3125000   0.3125000), wk =   0.0007500
        k(  176) = (   0.0125000   0.3125000   0.3375000), wk =   0.0015000
        k(  177) = (   0.0125000   0.3125000   0.3625000), wk =   0.0015000
        k(  178) = (   0.0125000   0.3125000   0.3875000), wk =   0.0015000
        k(  179) = (   0.0125000   0.3125000   0.4125000), wk =   0.0015000
        k(  180) = (   0.0125000   0.3125000   0.4375000), wk =   0.0015000
        k(  181) = (   0.0125000   0.3125000   0.4625000), wk =   0.0015000
        k(  182) = (   0.0125000   0.3125000   0.4875000), wk =   0.0015000
        k(  183) = (   0.0125000   0.3375000   0.3375000), wk =   0.0007500
        k(  184) = (   0.0125000   0.3375000   0.3625000), wk =   0.0015000
        k(  185) = (   0.0125000   0.3375000   0.3875000), wk =   0.0015000
        k(  186) = (   0.0125000   0.3375000   0.4125000), wk =   0.0015000
        k(  187) = (   0.0125000   0.3375000   0.4375000), wk =   0.0015000
        k(  188) = (   0.0125000   0.3375000   0.4625000), wk =   0.0015000
        k(  189) = (   0.0125000   0.3375000   0.4875000), wk =   0.0015000
        k(  190) = (   0.0125000   0.3625000   0.3625000), wk =   0.0007500
        k(  191) = (   0.0125000   0.3625000   0.3875000), wk =   0.0015000
        k(  192) = (   0.0125000   0.3625000   0.4125000), wk =   0.0015000
        k(  193) = (   0.0125000   0.3625000   0.4375000), wk =   0.0015000
        k(  194) = (   0.0125000   0.3625000   0.4625000), wk =   0.0015000
        k(  195) = (   0.0125000   0.3625000   0.4875000), wk =   0.0015000
        k(  196) = (   0.0125000   0.3875000   0.3875000), wk =   0.0007500
        k(  197) = (   0.0125000   0.3875000   0.4125000), wk =   0.0015000
        k(  198) = (   0.0125000   0.3875000   0.4375000), wk =   0.0015000
        k(  199) = (   0.0125000   0.3875000   0.4625000), wk =   0.0015000
        k(  200) = (   0.0125000   0.3875000   0.4875000), wk =   0.0015000
        k(  201) = (   0.0125000   0.4125000   0.4125000), wk =   0.0007500
        k(  202) = (   0.0125000   0.4125000   0.4375000), wk =   0.0015000
        k(  203) = (   0.0125000   0.4125000   0.4625000), wk =   0.0015000
        k(  204) = (   0.0125000   0.4125000   0.4875000), wk =   0.0015000
        k(  205) = (   0.0125000   0.4375000   0.4375000), wk =   0.0007500
        k(  206) = (   0.0125000   0.4375000   0.4625000), wk =   0.0015000
        k(  207) = (   0.0125000   0.4375000   0.4875000), wk =   0.0015000
        k(  208) = (   0.0125000   0.4625000   0.4625000), wk =   0.0007500
        k(  209) = (   0.0125000   0.4625000   0.4875000), wk =   0.0015000
        k(  210) = (   0.0125000   0.4875000   0.4875000), wk =   0.0007500
        k(  211) = (   0.0375000   0.0375000   0.0375000), wk =   0.0002500
        k(  212) = (   0.0375000   0.0375000   0.0625000), wk =   0.0007500
        k(  213) = (   0.0375000   0.0375000   0.0875000), wk =   0.0007500
        k(  214) = (   0.0375000   0.0375000   0.1125000), wk =   0.0007500
        k(  215) = (   0.0375000   0.0375000   0.1375000), wk =   0.0007500
        k(  216) = (   0.0375000   0.0375000   0.1625000), wk =   0.0007500
        k(  217) = (   0.0375000   0.0375000   0.1875000), wk =   0.0007500
        k(  218) = (   0.0375000   0.0375000   0.2125000), wk =   0.0007500
        k(  219) = (   0.0375000   0.0375000   0.2375000), wk =   0.0007500
        k(  220) = (   0.0375000   0.0375000   0.2625000), wk =   0.0007500
        k(  221) = (   0.0375000   0.0375000   0.2875000), wk =   0.0007500
        k(  222) = (   0.0375000   0.0375000   0.3125000), wk =   0.0007500
        k(  223) = (   0.0375000   0.0375000   0.3375000), wk =   0.0007500
        k(  224) = (   0.0375000   0.0375000   0.3625000), wk =   0.0007500
        k(  225) = (   0.0375000   0.0375000   0.3875000), wk =   0.0007500
        k(  226) = (   0.0375000   0.0375000   0.4125000), wk =   0.0007500
        k(  227) = (   0.0375000   0.0375000   0.4375000), wk =   0.0007500
        k(  228) = (   0.0375000   0.0375000   0.4625000), wk =   0.0007500
        k(  229) = (   0.0375000   0.0375000   0.4875000), wk =   0.0007500
        k(  230) = (   0.0375000   0.0625000   0.0625000), wk =   0.0007500
        k(  231) = (   0.0375000   0.0625000   0.0875000), wk =   0.0015000
        k(  232) = (   0.0375000   0.0625000   0.1125000), wk =   0.0015000
        k(  233) = (   0.0375000   0.0625000   0.1375000), wk =   0.0015000
        k(  234) = (   0.0375000   0.0625000   0.1625000), wk =   0.0015000
        k(  235) = (   0.0375000   0.0625000   0.1875000), wk =   0.0015000
        k(  236) = (   0.0375000   0.0625000   0.2125000), wk =   0.0015000
        k(  237) = (   0.0375000   0.0625000   0.2375000), wk =   0.0015000
        k(  238) = (   0.0375000   0.0625000   0.2625000), wk =   0.0015000
        k(  239) = (   0.0375000   0.0625000   0.2875000), wk =   0.0015000
        k(  240) = (   0.0375000   0.0625000   0.3125000), wk =   0.0015000
        k(  241) = (   0.0375000   0.0625000   0.3375000), wk =   0.0015000
        k(  242) = (   0.0375000   0.0625000   0.3625000), wk =   0.0015000
        k(  243) = (   0.0375000   0.0625000   0.3875000), wk =   0.0015000
        k(  244) = (   0.0375000   0.0625000   0.4125000), wk =   0.0015000
        k(  245) = (   0.0375000   0.0625000   0.4375000), wk =   0.0015000
        k(  246) = (   0.0375000   0.0625000   0.4625000), wk =   0.0015000
        k(  247) = (   0.0375000   0.0625000   0.4875000), wk =   0.0015000
        k(  248) = (   0.0375000   0.0875000   0.0875000), wk =   0.0007500
        k(  249) = (   0.0375000   0.0875000   0.1125000), wk =   0.0015000
        k(  250) = (   0.0375000   0.0875000   0.1375000), wk =   0.0015000
        k(  251) = (   0.0375000   0.0875000   0.1625000), wk =   0.0015000
        k(  252) = (   0.0375000   0.0875000   0.1875000), wk =   0.0015000
        k(  253) = (   0.0375000   0.0875000   0.2125000), wk =   0.0015000
        k(  254) = (   0.0375000   0.0875000   0.2375000), wk =   0.0015000
        k(  255) = (   0.0375000   0.0875000   0.2625000), wk =   0.0015000
        k(  256) = (   0.0375000   0.0875000   0.2875000), wk =   0.0015000
        k(  257) = (   0.0375000   0.0875000   0.3125000), wk =   0.0015000
        k(  258) = (   0.0375000   0.0875000   0.3375000), wk =   0.0015000
        k(  259) = (   0.0375000   0.0875000   0.3625000), wk =   0.0015000
        k(  260) = (   0.0375000   0.0875000   0.3875000), wk =   0.0015000
        k(  261) = (   0.0375000   0.0875000   0.4125000), wk =   0.0015000
        k(  262) = (   0.0375000   0.0875000   0.4375000), wk =   0.0015000
        k(  263) = (   0.0375000   0.0875000   0.4625000), wk =   0.0015000
        k(  264) = (   0.0375000   0.0875000   0.4875000), wk =   0.0015000
        k(  265) = (   0.0375000   0.1125000   0.1125000), wk =   0.0007500
        k(  266) = (   0.0375000   0.1125000   0.1375000), wk =   0.0015000
        k(  267) = (   0.0375000   0.1125000   0.1625000), wk =   0.0015000
        k(  268) = (   0.0375000   0.1125000   0.1875000), wk =   0.0015000
        k(  269) = (   0.0375000   0.1125000   0.2125000), wk =   0.0015000
        k(  270) = (   0.0375000   0.1125000   0.2375000), wk =   0.0015000
        k(  271) = (   0.0375000   0.1125000   0.2625000), wk =   0.0015000
        k(  272) = (   0.0375000   0.1125000   0.2875000), wk =   0.0015000
        k(  273) = (   0.0375000   0.1125000   0.3125000), wk =   0.0015000
        k(  274) = (   0.0375000   0.1125000   0.3375000), wk =   0.0015000
        k(  275) = (   0.0375000   0.1125000   0.3625000), wk =   0.0015000
        k(  276) = (   0.0375000   0.1125000   0.3875000), wk =   0.0015000
        k(  277) = (   0.0375000   0.1125000   0.4125000), wk =   0.0015000
        k(  278) = (   0.0375000   0.1125000   0.4375000), wk =   0.0015000
        k(  279) = (   0.0375000   0.1125000   0.4625000), wk =   0.0015000
        k(  280) = (   0.0375000   0.1125000   0.4875000), wk =   0.0015000
        k(  281) = (   0.0375000   0.1375000   0.1375000), wk =   0.0007500
        k(  282) = (   0.0375000   0.1375000   0.1625000), wk =   0.0015000
        k(  283) = (   0.0375000   0.1375000   0.1875000), wk =   0.0015000
        k(  284) = (   0.0375000   0.1375000   0.2125000), wk =   0.0015000
        k(  285) = (   0.0375000   0.1375000   0.2375000), wk =   0.0015000
        k(  286) = (   0.0375000   0.1375000   0.2625000), wk =   0.0015000
        k(  287) = (   0.0375000   0.1375000   0.2875000), wk =   0.0015000
        k(  288) = (   0.0375000   0.1375000   0.3125000), wk =   0.0015000
        k(  289) = (   0.0375000   0.1375000   0.3375000), wk =   0.0015000
        k(  290) = (   0.0375000   0.1375000   0.3625000), wk =   0.0015000
        k(  291) = (   0.0375000   0.1375000   0.3875000), wk =   0.0015000
        k(  292) = (   0.0375000   0.1375000   0.4125000), wk =   0.0015000
        k(  293) = (   0.0375000   0.1375000   0.4375000), wk =   0.0015000
        k(  294) = (   0.0375000   0.1375000   0.4625000), wk =   0.0015000
        k(  295) = (   0.0375000   0.1375000   0.4875000), wk =   0.0015000
        k(  296) = (   0.0375000   0.1625000   0.1625000), wk =   0.0007500
        k(  297) = (   0.0375000   0.1625000   0.1875000), wk =   0.0015000
        k(  298) = (   0.0375000   0.1625000   0.2125000), wk =   0.0015000
        k(  299) = (   0.0375000   0.1625000   0.2375000), wk =   0.0015000
        k(  300) = (   0.0375000   0.1625000   0.2625000), wk =   0.0015000
        k(  301) = (   0.0375000   0.1625000   0.2875000), wk =   0.0015000
        k(  302) = (   0.0375000   0.1625000   0.3125000), wk =   0.0015000
        k(  303) = (   0.0375000   0.1625000   0.3375000), wk =   0.0015000
        k(  304) = (   0.0375000   0.1625000   0.3625000), wk =   0.0015000
        k(  305) = (   0.0375000   0.1625000   0.3875000), wk =   0.0015000
        k(  306) = (   0.0375000   0.1625000   0.4125000), wk =   0.0015000
        k(  307) = (   0.0375000   0.1625000   0.4375000), wk =   0.0015000
        k(  308) = (   0.0375000   0.1625000   0.4625000), wk =   0.0015000
        k(  309) = (   0.0375000   0.1625000   0.4875000), wk =   0.0015000
        k(  310) = (   0.0375000   0.1875000   0.1875000), wk =   0.0007500
        k(  311) = (   0.0375000   0.1875000   0.2125000), wk =   0.0015000
        k(  312) = (   0.0375000   0.1875000   0.2375000), wk =   0.0015000
        k(  313) = (   0.0375000   0.1875000   0.2625000), wk =   0.0015000
        k(  314) = (   0.0375000   0.1875000   0.2875000), wk =   0.0015000
        k(  315) = (   0.0375000   0.1875000   0.3125000), wk =   0.0015000
        k(  316) = (   0.0375000   0.1875000   0.3375000), wk =   0.0015000
        k(  317) = (   0.0375000   0.1875000   0.3625000), wk =   0.0015000
        k(  318) = (   0.0375000   0.1875000   0.3875000), wk =   0.0015000
        k(  319) = (   0.0375000   0.1875000   0.4125000), wk =   0.0015000
        k(  320) = (   0.0375000   0.1875000   0.4375000), wk =   0.0015000
        k(  321) = (   0.0375000   0.1875000   0.4625000), wk =   0.0015000
        k(  322) = (   0.0375000   0.1875000   0.4875000), wk =   0.0015000
        k(  323) = (   0.0375000   0.2125000   0.2125000), wk =   0.0007500
        k(  324) = (   0.0375000   0.2125000   0.2375000), wk =   0.0015000
        k(  325) = (   0.0375000   0.2125000   0.2625000), wk =   0.0015000
        k(  326) = (   0.0375000   0.2125000   0.2875000), wk =   0.0015000
        k(  327) = (   0.0375000   0.2125000   0.3125000), wk =   0.0015000
        k(  328) = (   0.0375000   0.2125000   0.3375000), wk =   0.0015000
        k(  329) = (   0.0375000   0.2125000   0.3625000), wk =   0.0015000
        k(  330) = (   0.0375000   0.2125000   0.3875000), wk =   0.0015000
        k(  331) = (   0.0375000   0.2125000   0.4125000), wk =   0.0015000
        k(  332) = (   0.0375000   0.2125000   0.4375000), wk =   0.0015000
        k(  333) = (   0.0375000   0.2125000   0.4625000), wk =   0.0015000
        k(  334) = (   0.0375000   0.2125000   0.4875000), wk =   0.0015000
        k(  335) = (   0.0375000   0.2375000   0.2375000), wk =   0.0007500
        k(  336) = (   0.0375000   0.2375000   0.2625000), wk =   0.0015000
        k(  337) = (   0.0375000   0.2375000   0.2875000), wk =   0.0015000
        k(  338) = (   0.0375000   0.2375000   0.3125000), wk =   0.0015000
        k(  339) = (   0.0375000   0.2375000   0.3375000), wk =   0.0015000
        k(  340) = (   0.0375000   0.2375000   0.3625000), wk =   0.0015000
        k(  341) = (   0.0375000   0.2375000   0.3875000), wk =   0.0015000
        k(  342) = (   0.0375000   0.2375000   0.4125000), wk =   0.0015000
        k(  343) = (   0.0375000   0.2375000   0.4375000), wk =   0.0015000
        k(  344) = (   0.0375000   0.2375000   0.4625000), wk =   0.0015000
        k(  345) = (   0.0375000   0.2375000   0.4875000), wk =   0.0015000
        k(  346) = (   0.0375000   0.2625000   0.2625000), wk =   0.0007500
        k(  347) = (   0.0375000   0.2625000   0.2875000), wk =   0.0015000
        k(  348) = (   0.0375000   0.2625000   0.3125000), wk =   0.0015000
        k(  349) = (   0.0375000   0.2625000   0.3375000), wk =   0.0015000
        k(  350) = (   0.0375000   0.2625000   0.3625000), wk =   0.0015000
        k(  351) = (   0.0375000   0.2625000   0.3875000), wk =   0.0015000
        k(  352) = (   0.0375000   0.2625000   0.4125000), wk =   0.0015000
        k(  353) = (   0.0375000   0.2625000   0.4375000), wk =   0.0015000
        k(  354) = (   0.0375000   0.2625000   0.4625000), wk =   0.0015000
        k(  355) = (   0.0375000   0.2625000   0.4875000), wk =   0.0015000
        k(  356) = (   0.0375000   0.2875000   0.2875000), wk =   0.0007500
        k(  357) = (   0.0375000   0.2875000   0.3125000), wk =   0.0015000
        k(  358) = (   0.0375000   0.2875000   0.3375000), wk =   0.0015000
        k(  359) = (   0.0375000   0.2875000   0.3625000), wk =   0.0015000
        k(  360) = (   0.0375000   0.2875000   0.3875000), wk =   0.0015000
        k(  361) = (   0.0375000   0.2875000   0.4125000), wk =   0.0015000
        k(  362) = (   0.0375000   0.2875000   0.4375000), wk =   0.0015000
        k(  363) = (   0.0375000   0.2875000   0.4625000), wk =   0.0015000
        k(  364) = (   0.0375000   0.2875000   0.4875000), wk =   0.0015000
        k(  365) = (   0.0375000   0.3125000   0.3125000), wk =   0.0007500
        k(  366) = (   0.0375000   0.3125000   0.3375000), wk =   0.0015000
        k(  367) = (   0.0375000   0.3125000   0.3625000), wk =   0.0015000
        k(  368) = (   0.0375000   0.3125000   0.3875000), wk =   0.0015000
        k(  369) = (   0.0375000   0.3125000   0.4125000), wk =   0.0015000
        k(  370) = (   0.0375000   0.3125000   0.4375000), wk =   0.0015000
        k(  371) = (   0.0375000   0.3125000   0.4625000), wk =   0.0015000
        k(  372) = (   0.0375000   0.3125000   0.4875000), wk =   0.0015000
        k(  373) = (   0.0375000   0.3375000   0.3375000), wk =   0.0007500
        k(  374) = (   0.0375000   0.3375000   0.3625000), wk =   0.0015000
        k(  375) = (   0.0375000   0.3375000   0.3875000), wk =   0.0015000
        k(  376) = (   0.0375000   0.3375000   0.4125000), wk =   0.0015000
        k(  377) = (   0.0375000   0.3375000   0.4375000), wk =   0.0015000
        k(  378) = (   0.0375000   0.3375000   0.4625000), wk =   0.0015000
        k(  379) = (   0.0375000   0.3375000   0.4875000), wk =   0.0015000
        k(  380) = (   0.0375000   0.3625000   0.3625000), wk =   0.0007500
        k(  381) = (   0.0375000   0.3625000   0.3875000), wk =   0.0015000
        k(  382) = (   0.0375000   0.3625000   0.4125000), wk =   0.0015000
        k(  383) = (   0.0375000   0.3625000   0.4375000), wk =   0.0015000
        k(  384) = (   0.0375000   0.3625000   0.4625000), wk =   0.0015000
        k(  385) = (   0.0375000   0.3625000   0.4875000), wk =   0.0015000
        k(  386) = (   0.0375000   0.3875000   0.3875000), wk =   0.0007500
        k(  387) = (   0.0375000   0.3875000   0.4125000), wk =   0.0015000
        k(  388) = (   0.0375000   0.3875000   0.4375000), wk =   0.0015000
        k(  389) = (   0.0375000   0.3875000   0.4625000), wk =   0.0015000
        k(  390) = (   0.0375000   0.3875000   0.4875000), wk =   0.0015000
        k(  391) = (   0.0375000   0.4125000   0.4125000), wk =   0.0007500
        k(  392) = (   0.0375000   0.4125000   0.4375000), wk =   0.0015000
        k(  393) = (   0.0375000   0.4125000   0.4625000), wk =   0.0015000
        k(  394) = (   0.0375000   0.4125000   0.4875000), wk =   0.0015000
        k(  395) = (   0.0375000   0.4375000   0.4375000), wk =   0.0007500
        k(  396) = (   0.0375000   0.4375000   0.4625000), wk =   0.0015000
        k(  397) = (   0.0375000   0.4375000   0.4875000), wk =   0.0015000
        k(  398) = (   0.0375000   0.4625000   0.4625000), wk =   0.0007500
        k(  399) = (   0.0375000   0.4625000   0.4875000), wk =   0.0015000
        k(  400) = (   0.0375000   0.4875000   0.4875000), wk =   0.0007500
        k(  401) = (   0.0625000   0.0625000   0.0625000), wk =   0.0002500
        k(  402) = (   0.0625000   0.0625000   0.0875000), wk =   0.0007500
        k(  403) = (   0.0625000   0.0625000   0.1125000), wk =   0.0007500
        k(  404) = (   0.0625000   0.0625000   0.1375000), wk =   0.0007500
        k(  405) = (   0.0625000   0.0625000   0.1625000), wk =   0.0007500
        k(  406) = (   0.0625000   0.0625000   0.1875000), wk =   0.0007500
        k(  407) = (   0.0625000   0.0625000   0.2125000), wk =   0.0007500
        k(  408) = (   0.0625000   0.0625000   0.2375000), wk =   0.0007500
        k(  409) = (   0.0625000   0.0625000   0.2625000), wk =   0.0007500
        k(  410) = (   0.0625000   0.0625000   0.2875000), wk =   0.0007500
        k(  411) = (   0.0625000   0.0625000   0.3125000), wk =   0.0007500
        k(  412) = (   0.0625000   0.0625000   0.3375000), wk =   0.0007500
        k(  413) = (   0.0625000   0.0625000   0.3625000), wk =   0.0007500
        k(  414) = (   0.0625000   0.0625000   0.3875000), wk =   0.0007500
        k(  415) = (   0.0625000   0.0625000   0.4125000), wk =   0.0007500
        k(  416) = (   0.0625000   0.0625000   0.4375000), wk =   0.0007500
        k(  417) = (   0.0625000   0.0625000   0.4625000), wk =   0.0007500
        k(  418) = (   0.0625000   0.0625000   0.4875000), wk =   0.0007500
        k(  419) = (   0.0625000   0.0875000   0.0875000), wk =   0.0007500
        k(  420) = (   0.0625000   0.0875000   0.1125000), wk =   0.0015000
        k(  421) = (   0.0625000   0.0875000   0.1375000), wk =   0.0015000
        k(  422) = (   0.0625000   0.0875000   0.1625000), wk =   0.0015000
        k(  423) = (   0.0625000   0.0875000   0.1875000), wk =   0.0015000
        k(  424) = (   0.0625000   0.0875000   0.2125000), wk =   0.0015000
        k(  425) = (   0.0625000   0.0875000   0.2375000), wk =   0.0015000
        k(  426) = (   0.0625000   0.0875000   0.2625000), wk =   0.0015000
        k(  427) = (   0.0625000   0.0875000   0.2875000), wk =   0.0015000
        k(  428) = (   0.0625000   0.0875000   0.3125000), wk =   0.0015000
        k(  429) = (   0.0625000   0.0875000   0.3375000), wk =   0.0015000
        k(  430) = (   0.0625000   0.0875000   0.3625000), wk =   0.0015000
        k(  431) = (   0.0625000   0.0875000   0.3875000), wk =   0.0015000
        k(  432) = (   0.0625000   0.0875000   0.4125000), wk =   0.0015000
        k(  433) = (   0.0625000   0.0875000   0.4375000), wk =   0.0015000
        k(  434) = (   0.0625000   0.0875000   0.4625000), wk =   0.0015000
        k(  435) = (   0.0625000   0.0875000   0.4875000), wk =   0.0015000
        k(  436) = (   0.0625000   0.1125000   0.1125000), wk =   0.0007500
        k(  437) = (   0.0625000   0.1125000   0.1375000), wk =   0.0015000
        k(  438) = (   0.0625000   0.1125000   0.1625000), wk =   0.0015000
        k(  439) = (   0.0625000   0.1125000   0.1875000), wk =   0.0015000
        k(  440) = (   0.0625000   0.1125000   0.2125000), wk =   0.0015000
        k(  441) = (   0.0625000   0.1125000   0.2375000), wk =   0.0015000
        k(  442) = (   0.0625000   0.1125000   0.2625000), wk =   0.0015000
        k(  443) = (   0.0625000   0.1125000   0.2875000), wk =   0.0015000
        k(  444) = (   0.0625000   0.1125000   0.3125000), wk =   0.0015000
        k(  445) = (   0.0625000   0.1125000   0.3375000), wk =   0.0015000
        k(  446) = (   0.0625000   0.1125000   0.3625000), wk =   0.0015000
        k(  447) = (   0.0625000   0.1125000   0.3875000), wk =   0.0015000
        k(  448) = (   0.0625000   0.1125000   0.4125000), wk =   0.0015000
        k(  449) = (   0.0625000   0.1125000   0.4375000), wk =   0.0015000
        k(  450) = (   0.0625000   0.1125000   0.4625000), wk =   0.0015000
        k(  451) = (   0.0625000   0.1125000   0.4875000), wk =   0.0015000
        k(  452) = (   0.0625000   0.1375000   0.1375000), wk =   0.0007500
        k(  453) = (   0.0625000   0.1375000   0.1625000), wk =   0.0015000
        k(  454) = (   0.0625000   0.1375000   0.1875000), wk =   0.0015000
        k(  455) = (   0.0625000   0.1375000   0.2125000), wk =   0.0015000
        k(  456) = (   0.0625000   0.1375000   0.2375000), wk =   0.0015000
        k(  457) = (   0.0625000   0.1375000   0.2625000), wk =   0.0015000
        k(  458) = (   0.0625000   0.1375000   0.2875000), wk =   0.0015000
        k(  459) = (   0.0625000   0.1375000   0.3125000), wk =   0.0015000
        k(  460) = (   0.0625000   0.1375000   0.3375000), wk =   0.0015000
        k(  461) = (   0.0625000   0.1375000   0.3625000), wk =   0.0015000
        k(  462) = (   0.0625000   0.1375000   0.3875000), wk =   0.0015000
        k(  463) = (   0.0625000   0.1375000   0.4125000), wk =   0.0015000
        k(  464) = (   0.0625000   0.1375000   0.4375000), wk =   0.0015000
        k(  465) = (   0.0625000   0.1375000   0.4625000), wk =   0.0015000
        k(  466) = (   0.0625000   0.1375000   0.4875000), wk =   0.0015000
        k(  467) = (   0.0625000   0.1625000   0.1625000), wk =   0.0007500
        k(  468) = (   0.0625000   0.1625000   0.1875000), wk =   0.0015000
        k(  469) = (   0.0625000   0.1625000   0.2125000), wk =   0.0015000
        k(  470) = (   0.0625000   0.1625000   0.2375000), wk =   0.0015000
        k(  471) = (   0.0625000   0.1625000   0.2625000), wk =   0.0015000
        k(  472) = (   0.0625000   0.1625000   0.2875000), wk =   0.0015000
        k(  473) = (   0.0625000   0.1625000   0.3125000), wk =   0.0015000
        k(  474) = (   0.0625000   0.1625000   0.3375000), wk =   0.0015000
        k(  475) = (   0.0625000   0.1625000   0.3625000), wk =   0.0015000
        k(  476) = (   0.0625000   0.1625000   0.3875000), wk =   0.0015000
        k(  477) = (   0.0625000   0.1625000   0.4125000), wk =   0.0015000
        k(  478) = (   0.0625000   0.1625000   0.4375000), wk =   0.0015000
        k(  479) = (   0.0625000   0.1625000   0.4625000), wk =   0.0015000
        k(  480) = (   0.0625000   0.1625000   0.4875000), wk =   0.0015000
        k(  481) = (   0.0625000   0.1875000   0.1875000), wk =   0.0007500
        k(  482) = (   0.0625000   0.1875000   0.2125000), wk =   0.0015000
        k(  483) = (   0.0625000   0.1875000   0.2375000), wk =   0.0015000
        k(  484) = (   0.0625000   0.1875000   0.2625000), wk =   0.0015000
        k(  485) = (   0.0625000   0.1875000   0.2875000), wk =   0.0015000
        k(  486) = (   0.0625000   0.1875000   0.3125000), wk =   0.0015000
        k(  487) = (   0.0625000   0.1875000   0.3375000), wk =   0.0015000
        k(  488) = (   0.0625000   0.1875000   0.3625000), wk =   0.0015000
        k(  489) = (   0.0625000   0.1875000   0.3875000), wk =   0.0015000
        k(  490) = (   0.0625000   0.1875000   0.4125000), wk =   0.0015000
        k(  491) = (   0.0625000   0.1875000   0.4375000), wk =   0.0015000
        k(  492) = (   0.0625000   0.1875000   0.4625000), wk =   0.0015000
        k(  493) = (   0.0625000   0.1875000   0.4875000), wk =   0.0015000
        k(  494) = (   0.0625000   0.2125000   0.2125000), wk =   0.0007500
        k(  495) = (   0.0625000   0.2125000   0.2375000), wk =   0.0015000
        k(  496) = (   0.0625000   0.2125000   0.2625000), wk =   0.0015000
        k(  497) = (   0.0625000   0.2125000   0.2875000), wk =   0.0015000
        k(  498) = (   0.0625000   0.2125000   0.3125000), wk =   0.0015000
        k(  499) = (   0.0625000   0.2125000   0.3375000), wk =   0.0015000
        k(  500) = (   0.0625000   0.2125000   0.3625000), wk =   0.0015000
        k(  501) = (   0.0625000   0.2125000   0.3875000), wk =   0.0015000
        k(  502) = (   0.0625000   0.2125000   0.4125000), wk =   0.0015000
        k(  503) = (   0.0625000   0.2125000   0.4375000), wk =   0.0015000
        k(  504) = (   0.0625000   0.2125000   0.4625000), wk =   0.0015000
        k(  505) = (   0.0625000   0.2125000   0.4875000), wk =   0.0015000
        k(  506) = (   0.0625000   0.2375000   0.2375000), wk =   0.0007500
        k(  507) = (   0.0625000   0.2375000   0.2625000), wk =   0.0015000
        k(  508) = (   0.0625000   0.2375000   0.2875000), wk =   0.0015000
        k(  509) = (   0.0625000   0.2375000   0.3125000), wk =   0.0015000
        k(  510) = (   0.0625000   0.2375000   0.3375000), wk =   0.0015000
        k(  511) = (   0.0625000   0.2375000   0.3625000), wk =   0.0015000
        k(  512) = (   0.0625000   0.2375000   0.3875000), wk =   0.0015000
        k(  513) = (   0.0625000   0.2375000   0.4125000), wk =   0.0015000
        k(  514) = (   0.0625000   0.2375000   0.4375000), wk =   0.0015000
        k(  515) = (   0.0625000   0.2375000   0.4625000), wk =   0.0015000
        k(  516) = (   0.0625000   0.2375000   0.4875000), wk =   0.0015000
        k(  517) = (   0.0625000   0.2625000   0.2625000), wk =   0.0007500
        k(  518) = (   0.0625000   0.2625000   0.2875000), wk =   0.0015000
        k(  519) = (   0.0625000   0.2625000   0.3125000), wk =   0.0015000
        k(  520) = (   0.0625000   0.2625000   0.3375000), wk =   0.0015000
        k(  521) = (   0.0625000   0.2625000   0.3625000), wk =   0.0015000
        k(  522) = (   0.0625000   0.2625000   0.3875000), wk =   0.0015000
        k(  523) = (   0.0625000   0.2625000   0.4125000), wk =   0.0015000
        k(  524) = (   0.0625000   0.2625000   0.4375000), wk =   0.0015000
        k(  525) = (   0.0625000   0.2625000   0.4625000), wk =   0.0015000
        k(  526) = (   0.0625000   0.2625000   0.4875000), wk =   0.0015000
        k(  527) = (   0.0625000   0.2875000   0.2875000), wk =   0.0007500
        k(  528) = (   0.0625000   0.2875000   0.3125000), wk =   0.0015000
        k(  529) = (   0.0625000   0.2875000   0.3375000), wk =   0.0015000
        k(  530) = (   0.0625000   0.2875000   0.3625000), wk =   0.0015000
        k(  531) = (   0.0625000   0.2875000   0.3875000), wk =   0.0015000
        k(  532) = (   0.0625000   0.2875000   0.4125000), wk =   0.0015000
        k(  533) = (   0.0625000   0.2875000   0.4375000), wk =   0.0015000
        k(  534) = (   0.0625000   0.2875000   0.4625000), wk =   0.0015000
        k(  535) = (   0.0625000   0.2875000   0.4875000), wk =   0.0015000
        k(  536) = (   0.0625000   0.3125000   0.3125000), wk =   0.0007500
        k(  537) = (   0.0625000   0.3125000   0.3375000), wk =   0.0015000
        k(  538) = (   0.0625000   0.3125000   0.3625000), wk =   0.0015000
        k(  539) = (   0.0625000   0.3125000   0.3875000), wk =   0.0015000
        k(  540) = (   0.0625000   0.3125000   0.4125000), wk =   0.0015000
        k(  541) = (   0.0625000   0.3125000   0.4375000), wk =   0.0015000
        k(  542) = (   0.0625000   0.3125000   0.4625000), wk =   0.0015000
        k(  543) = (   0.0625000   0.3125000   0.4875000), wk =   0.0015000
        k(  544) = (   0.0625000   0.3375000   0.3375000), wk =   0.0007500
        k(  545) = (   0.0625000   0.3375000   0.3625000), wk =   0.0015000
        k(  546) = (   0.0625000   0.3375000   0.3875000), wk =   0.0015000
        k(  547) = (   0.0625000   0.3375000   0.4125000), wk =   0.0015000
        k(  548) = (   0.0625000   0.3375000   0.4375000), wk =   0.0015000
        k(  549) = (   0.0625000   0.3375000   0.4625000), wk =   0.0015000
        k(  550) = (   0.0625000   0.3375000   0.4875000), wk =   0.0015000
        k(  551) = (   0.0625000   0.3625000   0.3625000), wk =   0.0007500
        k(  552) = (   0.0625000   0.3625000   0.3875000), wk =   0.0015000
        k(  553) = (   0.0625000   0.3625000   0.4125000), wk =   0.0015000
        k(  554) = (   0.0625000   0.3625000   0.4375000), wk =   0.0015000
        k(  555) = (   0.0625000   0.3625000   0.4625000), wk =   0.0015000
        k(  556) = (   0.0625000   0.3625000   0.4875000), wk =   0.0015000
        k(  557) = (   0.0625000   0.3875000   0.3875000), wk =   0.0007500
        k(  558) = (   0.0625000   0.3875000   0.4125000), wk =   0.0015000
        k(  559) = (   0.0625000   0.3875000   0.4375000), wk =   0.0015000
        k(  560) = (   0.0625000   0.3875000   0.4625000), wk =   0.0015000
        k(  561) = (   0.0625000   0.3875000   0.4875000), wk =   0.0015000
        k(  562) = (   0.0625000   0.4125000   0.4125000), wk =   0.0007500
        k(  563) = (   0.0625000   0.4125000   0.4375000), wk =   0.0015000
        k(  564) = (   0.0625000   0.4125000   0.4625000), wk =   0.0015000
        k(  565) = (   0.0625000   0.4125000   0.4875000), wk =   0.0015000
        k(  566) = (   0.0625000   0.4375000   0.4375000), wk =   0.0007500
        k(  567) = (   0.0625000   0.4375000   0.4625000), wk =   0.0015000
        k(  568) = (   0.0625000   0.4375000   0.4875000), wk =   0.0015000
        k(  569) = (   0.0625000   0.4625000   0.4625000), wk =   0.0007500
        k(  570) = (   0.0625000   0.4625000   0.4875000), wk =   0.0015000
        k(  571) = (   0.0625000   0.4875000   0.4875000), wk =   0.0007500
        k(  572) = (   0.0875000   0.0875000   0.0875000), wk =   0.0002500
        k(  573) = (   0.0875000   0.0875000   0.1125000), wk =   0.0007500
        k(  574) = (   0.0875000   0.0875000   0.1375000), wk =   0.0007500
        k(  575) = (   0.0875000   0.0875000   0.1625000), wk =   0.0007500
        k(  576) = (   0.0875000   0.0875000   0.1875000), wk =   0.0007500
        k(  577) = (   0.0875000   0.0875000   0.2125000), wk =   0.0007500
        k(  578) = (   0.0875000   0.0875000   0.2375000), wk =   0.0007500
        k(  579) = (   0.0875000   0.0875000   0.2625000), wk =   0.0007500
        k(  580) = (   0.0875000   0.0875000   0.2875000), wk =   0.0007500
        k(  581) = (   0.0875000   0.0875000   0.3125000), wk =   0.0007500
        k(  582) = (   0.0875000   0.0875000   0.3375000), wk =   0.0007500
        k(  583) = (   0.0875000   0.0875000   0.3625000), wk =   0.0007500
        k(  584) = (   0.0875000   0.0875000   0.3875000), wk =   0.0007500
        k(  585) = (   0.0875000   0.0875000   0.4125000), wk =   0.0007500
        k(  586) = (   0.0875000   0.0875000   0.4375000), wk =   0.0007500
        k(  587) = (   0.0875000   0.0875000   0.4625000), wk =   0.0007500
        k(  588) = (   0.0875000   0.0875000   0.4875000), wk =   0.0007500
        k(  589) = (   0.0875000   0.1125000   0.1125000), wk =   0.0007500
        k(  590) = (   0.0875000   0.1125000   0.1375000), wk =   0.0015000
        k(  591) = (   0.0875000   0.1125000   0.1625000), wk =   0.0015000
        k(  592) = (   0.0875000   0.1125000   0.1875000), wk =   0.0015000
        k(  593) = (   0.0875000   0.1125000   0.2125000), wk =   0.0015000
        k(  594) = (   0.0875000   0.1125000   0.2375000), wk =   0.0015000
        k(  595) = (   0.0875000   0.1125000   0.2625000), wk =   0.0015000
        k(  596) = (   0.0875000   0.1125000   0.2875000), wk =   0.0015000
        k(  597) = (   0.0875000   0.1125000   0.3125000), wk =   0.0015000
        k(  598) = (   0.0875000   0.1125000   0.3375000), wk =   0.0015000
        k(  599) = (   0.0875000   0.1125000   0.3625000), wk =   0.0015000
        k(  600) = (   0.0875000   0.1125000   0.3875000), wk =   0.0015000
        k(  601) = (   0.0875000   0.1125000   0.4125000), wk =   0.0015000
        k(  602) = (   0.0875000   0.1125000   0.4375000), wk =   0.0015000
        k(  603) = (   0.0875000   0.1125000   0.4625000), wk =   0.0015000
        k(  604) = (   0.0875000   0.1125000   0.4875000), wk =   0.0015000
        k(  605) = (   0.0875000   0.1375000   0.1375000), wk =   0.0007500
        k(  606) = (   0.0875000   0.1375000   0.1625000), wk =   0.0015000
        k(  607) = (   0.0875000   0.1375000   0.1875000), wk =   0.0015000
        k(  608) = (   0.0875000   0.1375000   0.2125000), wk =   0.0015000
        k(  609) = (   0.0875000   0.1375000   0.2375000), wk =   0.0015000
        k(  610) = (   0.0875000   0.1375000   0.2625000), wk =   0.0015000
        k(  611) = (   0.0875000   0.1375000   0.2875000), wk =   0.0015000
        k(  612) = (   0.0875000   0.1375000   0.3125000), wk =   0.0015000
        k(  613) = (   0.0875000   0.1375000   0.3375000), wk =   0.0015000
        k(  614) = (   0.0875000   0.1375000   0.3625000), wk =   0.0015000
        k(  615) = (   0.0875000   0.1375000   0.3875000), wk =   0.0015000
        k(  616) = (   0.0875000   0.1375000   0.4125000), wk =   0.0015000
        k(  617) = (   0.0875000   0.1375000   0.4375000), wk =   0.0015000
        k(  618) = (   0.0875000   0.1375000   0.4625000), wk =   0.0015000
        k(  619) = (   0.0875000   0.1375000   0.4875000), wk =   0.0015000
        k(  620) = (   0.0875000   0.1625000   0.1625000), wk =   0.0007500
        k(  621) = (   0.0875000   0.1625000   0.1875000), wk =   0.0015000
        k(  622) = (   0.0875000   0.1625000   0.2125000), wk =   0.0015000
        k(  623) = (   0.0875000   0.1625000   0.2375000), wk =   0.0015000
        k(  624) = (   0.0875000   0.1625000   0.2625000), wk =   0.0015000
        k(  625) = (   0.0875000   0.1625000   0.2875000), wk =   0.0015000
        k(  626) = (   0.0875000   0.1625000   0.3125000), wk =   0.0015000
        k(  627) = (   0.0875000   0.1625000   0.3375000), wk =   0.0015000
        k(  628) = (   0.0875000   0.1625000   0.3625000), wk =   0.0015000
        k(  629) = (   0.0875000   0.1625000   0.3875000), wk =   0.0015000
        k(  630) = (   0.0875000   0.1625000   0.4125000), wk =   0.0015000
        k(  631) = (   0.0875000   0.1625000   0.4375000), wk =   0.0015000
        k(  632) = (   0.0875000   0.1625000   0.4625000), wk =   0.0015000
        k(  633) = (   0.0875000   0.1625000   0.4875000), wk =   0.0015000
        k(  634) = (   0.0875000   0.1875000   0.1875000), wk =   0.0007500
        k(  635) = (   0.0875000   0.1875000   0.2125000), wk =   0.0015000
        k(  636) = (   0.0875000   0.1875000   0.2375000), wk =   0.0015000
        k(  637) = (   0.0875000   0.1875000   0.2625000), wk =   0.0015000
        k(  638) = (   0.0875000   0.1875000   0.2875000), wk =   0.0015000
        k(  639) = (   0.0875000   0.1875000   0.3125000), wk =   0.0015000
        k(  640) = (   0.0875000   0.1875000   0.3375000), wk =   0.0015000
        k(  641) = (   0.0875000   0.1875000   0.3625000), wk =   0.0015000
        k(  642) = (   0.0875000   0.1875000   0.3875000), wk =   0.0015000
        k(  643) = (   0.0875000   0.1875000   0.4125000), wk =   0.0015000
        k(  644) = (   0.0875000   0.1875000   0.4375000), wk =   0.0015000
        k(  645) = (   0.0875000   0.1875000   0.4625000), wk =   0.0015000
        k(  646) = (   0.0875000   0.1875000   0.4875000), wk =   0.0015000
        k(  647) = (   0.0875000   0.2125000   0.2125000), wk =   0.0007500
        k(  648) = (   0.0875000   0.2125000   0.2375000), wk =   0.0015000
        k(  649) = (   0.0875000   0.2125000   0.2625000), wk =   0.0015000
        k(  650) = (   0.0875000   0.2125000   0.2875000), wk =   0.0015000
        k(  651) = (   0.0875000   0.2125000   0.3125000), wk =   0.0015000
        k(  652) = (   0.0875000   0.2125000   0.3375000), wk =   0.0015000
        k(  653) = (   0.0875000   0.2125000   0.3625000), wk =   0.0015000
        k(  654) = (   0.0875000   0.2125000   0.3875000), wk =   0.0015000
        k(  655) = (   0.0875000   0.2125000   0.4125000), wk =   0.0015000
        k(  656) = (   0.0875000   0.2125000   0.4375000), wk =   0.0015000
        k(  657) = (   0.0875000   0.2125000   0.4625000), wk =   0.0015000
        k(  658) = (   0.0875000   0.2125000   0.4875000), wk =   0.0015000
        k(  659) = (   0.0875000   0.2375000   0.2375000), wk =   0.0007500
        k(  660) = (   0.0875000   0.2375000   0.2625000), wk =   0.0015000
        k(  661) = (   0.0875000   0.2375000   0.2875000), wk =   0.0015000
        k(  662) = (   0.0875000   0.2375000   0.3125000), wk =   0.0015000
        k(  663) = (   0.0875000   0.2375000   0.3375000), wk =   0.0015000
        k(  664) = (   0.0875000   0.2375000   0.3625000), wk =   0.0015000
        k(  665) = (   0.0875000   0.2375000   0.3875000), wk =   0.0015000
        k(  666) = (   0.0875000   0.2375000   0.4125000), wk =   0.0015000
        k(  667) = (   0.0875000   0.2375000   0.4375000), wk =   0.0015000
        k(  668) = (   0.0875000   0.2375000   0.4625000), wk =   0.0015000
        k(  669) = (   0.0875000   0.2375000   0.4875000), wk =   0.0015000
        k(  670) = (   0.0875000   0.2625000   0.2625000), wk =   0.0007500
        k(  671) = (   0.0875000   0.2625000   0.2875000), wk =   0.0015000
        k(  672) = (   0.0875000   0.2625000   0.3125000), wk =   0.0015000
        k(  673) = (   0.0875000   0.2625000   0.3375000), wk =   0.0015000
        k(  674) = (   0.0875000   0.2625000   0.3625000), wk =   0.0015000
        k(  675) = (   0.0875000   0.2625000   0.3875000), wk =   0.0015000
        k(  676) = (   0.0875000   0.2625000   0.4125000), wk =   0.0015000
        k(  677) = (   0.0875000   0.2625000   0.4375000), wk =   0.0015000
        k(  678) = (   0.0875000   0.2625000   0.4625000), wk =   0.0015000
        k(  679) = (   0.0875000   0.2625000   0.4875000), wk =   0.0015000
        k(  680) = (   0.0875000   0.2875000   0.2875000), wk =   0.0007500
        k(  681) = (   0.0875000   0.2875000   0.3125000), wk =   0.0015000
        k(  682) = (   0.0875000   0.2875000   0.3375000), wk =   0.0015000
        k(  683) = (   0.0875000   0.2875000   0.3625000), wk =   0.0015000
        k(  684) = (   0.0875000   0.2875000   0.3875000), wk =   0.0015000
        k(  685) = (   0.0875000   0.2875000   0.4125000), wk =   0.0015000
        k(  686) = (   0.0875000   0.2875000   0.4375000), wk =   0.0015000
        k(  687) = (   0.0875000   0.2875000   0.4625000), wk =   0.0015000
        k(  688) = (   0.0875000   0.2875000   0.4875000), wk =   0.0015000
        k(  689) = (   0.0875000   0.3125000   0.3125000), wk =   0.0007500
        k(  690) = (   0.0875000   0.3125000   0.3375000), wk =   0.0015000
        k(  691) = (   0.0875000   0.3125000   0.3625000), wk =   0.0015000
        k(  692) = (   0.0875000   0.3125000   0.3875000), wk =   0.0015000
        k(  693) = (   0.0875000   0.3125000   0.4125000), wk =   0.0015000
        k(  694) = (   0.0875000   0.3125000   0.4375000), wk =   0.0015000
        k(  695) = (   0.0875000   0.3125000   0.4625000), wk =   0.0015000
        k(  696) = (   0.0875000   0.3125000   0.4875000), wk =   0.0015000
        k(  697) = (   0.0875000   0.3375000   0.3375000), wk =   0.0007500
        k(  698) = (   0.0875000   0.3375000   0.3625000), wk =   0.0015000
        k(  699) = (   0.0875000   0.3375000   0.3875000), wk =   0.0015000
        k(  700) = (   0.0875000   0.3375000   0.4125000), wk =   0.0015000
        k(  701) = (   0.0875000   0.3375000   0.4375000), wk =   0.0015000
        k(  702) = (   0.0875000   0.3375000   0.4625000), wk =   0.0015000
        k(  703) = (   0.0875000   0.3375000   0.4875000), wk =   0.0015000
        k(  704) = (   0.0875000   0.3625000   0.3625000), wk =   0.0007500
        k(  705) = (   0.0875000   0.3625000   0.3875000), wk =   0.0015000
        k(  706) = (   0.0875000   0.3625000   0.4125000), wk =   0.0015000
        k(  707) = (   0.0875000   0.3625000   0.4375000), wk =   0.0015000
        k(  708) = (   0.0875000   0.3625000   0.4625000), wk =   0.0015000
        k(  709) = (   0.0875000   0.3625000   0.4875000), wk =   0.0015000
        k(  710) = (   0.0875000   0.3875000   0.3875000), wk =   0.0007500
        k(  711) = (   0.0875000   0.3875000   0.4125000), wk =   0.0015000
        k(  712) = (   0.0875000   0.3875000   0.4375000), wk =   0.0015000
        k(  713) = (   0.0875000   0.3875000   0.4625000), wk =   0.0015000
        k(  714) = (   0.0875000   0.3875000   0.4875000), wk =   0.0015000
        k(  715) = (   0.0875000   0.4125000   0.4125000), wk =   0.0007500
[...]

   -30.3614 -19.9811 -12.3822 -12.3526 -12.3483  -8.7156  -8.6897  -8.6467
    -5.2859  -5.2822  -5.2550   3.5956   3.9464   4.0362   4.0568   4.3014
     4.3374   5.6254   5.6427   5.6905  11.5351  11.5764  11.6014

     occupation numbers 
     1.0000   1.0000   1.0000   1.0000   1.0000   1.0000   1.0000   1.0000
     1.0000   1.0000   1.0000   1.0000   1.0000   1.0000   1.0000   1.0000
     1.0000   0.1519   0.1288   0.0788   0.0000   0.0000   0.0000

          k = 0.4125 0.4125 0.4875 (  2532 PWs)   bands (ev):

   -30.3613 -19.9809 -12.3883 -12.3524 -12.3481  -8.7144  -8.6891  -8.6358
    -5.2877  -5.2827  -5.2595   3.5895   3.9466   4.0337   4.0601   4.2945
     4.3375   5.6281   5.6499   5.6945  11.5240  11.5641  11.5957

     occupation numbers 
     1.0000   1.0000   1.0000   1.0000   1.0000   1.0000   1.0000   1.0000
     1.0000   1.0000   1.0000   1.0000   1.0000   1.0000   1.0000   1.0000
     1.0000   0.1481   0.1201   0.0754   0.0000   0.0000   0.0000

          k = 0.4125 0.4375 0.4375 (  2531 PWs)   bands (ev):

   -30.3613 -19.9809 -12.3705 -12.3681 -12.3500  -8.7067  -8.6704  -8.6628
    -5.2866  -5.2855  -5.2579   3.5909   3.9559   4.0406   4.0459   4.3030
     4.3269   5.6386   5.6441   5.6912  11.5285  11.5721  11.5791

     occupation numbers 
     1.0000   1.0000   1.0000   1.0000   1.0000   1.0000   1.0000   1.0000
     1.0000   1.0000   1.0000   1.0000   1.0000   1.0000   1.0000   1.0000
     1.0000   0.1341   0.1271   0.0781   0.0000   0.0000   0.0000

          k = 0.4125 0.4375 0.4625 (  2532 PWs)   bands (ev):

   -30.3612 -19.9806 -12.3816 -12.3689 -12.3496  -8.7036  -8.6661  -8.6452
    -5.2901  -5.2878  -5.2661   3.5788   3.9605   4.0369   4.0482   4.2906
     4.3250   5.6472   5.6570   5.6995  11.5054  11.5493  11.5636

     occupation numbers 
     1.0000   1.0000   1.0000   1.0000   1.0000   1.0000   1.0000   1.0000
     1.0000   1.0000   1.0000   1.0000   1.0000   1.0000   1.0000   1.0000
     1.0000   0.1233   0.1118   0.0713   0.0000   0.0000   0.0000

          k = 0.4125 0.4375 0.4875 (  2533 PWs)   bands (ev):

   -30.3612 -19.9804 -12.3877 -12.3687 -12.3494  -8.7025  -8.6654  -8.6344
    -5.2920  -5.2885  -5.2707   3.5723   3.9617   4.0343   4.0511   4.2841
     4.3246   5.6504   5.6641   5.7044  11.4929  11.5368  11.5575

     occupation numbers 
     1.0000   1.0000   1.0000   1.0000   1.0000   1.0000   1.0000   1.0000
     1.0000   1.0000   1.0000   1.0000   1.0000   1.0000   1.0000   1.0000
     1.0000   0.1194   0.1041   0.0674   0.0000   0.0000   0.0000

          k = 0.4125 0.4625 0.4625 (  2536 PWs)   bands (ev):

   -30.3611 -19.9802 -12.3816 -12.3807 -12.3493  -8.7006  -8.6463  -8.6428
    -5.2926  -5.2914  -5.2744   3.5663   3.9664   4.0398   4.0434   4.2798
     4.3210   5.6610   5.6649   5.7085  11.4799  11.5351  11.5393

     occupation numbers 
     1.0000   1.0000   1.0000   1.0000   1.0000   1.0000   1.0000   1.0000
     1.0000   1.0000   1.0000   1.0000   1.0000   1.0000   1.0000   1.0000
     1.0000   0.1074   0.1032   0.0644   0.0000   0.0000   0.0000

          k = 0.4125 0.4625 0.4875 (  2537 PWs)   bands (ev):

   -30.3611 -19.9800 -12.3873 -12.3809 -12.3491  -8.6995  -8.6441  -8.6334
    -5.2941  -5.2925  -5.2791   3.5598   3.9682   4.0385   4.0450   4.2739
     4.3196   5.6653   5.6706   5.7140  11.4662  11.5241  11.5317

     occupation numbers 
     1.0000   1.0000   1.0000   1.0000   1.0000   1.0000   1.0000   1.0000
     1.0000   1.0000   1.0000   1.0000   1.0000   1.0000   1.0000   1.0000
     1.0000   0.1028   0.0973   0.0605   0.0000   0.0000   0.0000

          k = 0.4125 0.4875 0.4875 (  2537 PWs)   bands (ev):

   -30.3610 -19.9799 -12.3871 -12.3871 -12.3489  -8.6985  -8.6332  -8.6328
    -5.2947  -5.2944  -5.2839   3.5532   3.9703   4.0417   4.0423   4.2683
     4.3180   5.6728   5.6733   5.7199  11.4518  11.5183  11.5189

     occupation numbers 
     1.0000   1.0000   1.0000   1.0000   1.0000   1.0000   1.0000   1.0000
     1.0000   1.0000   1.0000   1.0000   1.0000   1.0000   1.0000   1.0000
     1.0000   0.0951   0.0946   0.0565   0.0000   0.0000   0.0000

          k = 0.4375 0.4375 0.4375 (  2533 PWs)   bands (ev):

   -30.3612 -19.9804 -12.3708 -12.3675 -12.3675  -8.6805  -8.6612  -8.6612
    -5.2911  -5.2911  -5.2690   3.5741   3.9732   4.0378   4.0378   4.3034
     4.3034   5.6612   5.6612   5.6975  11.5079  11.5378  11.5378

     occupation numbers 
     1.0000   1.0000   1.0000   1.0000   1.0000   1.0000   1.0000   1.0000
     1.0000   1.0000   1.0000   1.0000   1.0000   1.0000   1.0000   1.0000
     1.0000   0.1072   0.1072   0.0729   0.0000   0.0000   0.0000

          k = 0.4375 0.4375 0.4625 (  2534 PWs)   bands (ev):

   -30.3611 -19.9801 -12.3810 -12.3692 -12.3670  -8.6741  -8.6601  -8.6435
    -5.2950  -5.2936  -5.2771   3.5617   3.9809   4.0326   4.0398   4.2884
     4.3036   5.6701   5.6766   5.7047  11.4871  11.5099  11.5216

     occupation numbers 
     1.0000   1.0000   1.0000   1.0000   1.0000   1.0000   1.0000   1.0000
     1.0000   1.0000   1.0000   1.0000   1.0000   1.0000   1.0000   1.0000
     1.0000   0.0978   0.0914   0.0673   0.0000   0.0000   0.0000

          k = 0.4375 0.4375 0.4875 (  2536 PWs)   bands (ev):

   -30.3610 -19.9799 -12.3871 -12.3690 -12.3668  -8.6727  -8.6595  -8.6328
    -5.2969  -5.2944  -5.2817   3.5553   3.9831   4.0301   4.0426   4.2808
     4.3037   5.6735   5.6841   5.7092  11.4748  11.4958  11.5152

     occupation numbers 
     1.0000   1.0000   1.0000   1.0000   1.0000   1.0000   1.0000   1.0000
     1.0000   1.0000   1.0000   1.0000   1.0000   1.0000   1.0000   1.0000
     1.0000   0.0944   0.0844   0.0639   0.0000   0.0000   0.0000

          k = 0.4375 0.4625 0.4625 (  2536 PWs)   bands (ev):

   -30.3610 -19.9797 -12.3809 -12.3800 -12.3676  -8.6669  -8.6444  -8.6412
    -5.2980  -5.2972  -5.2852   3.5494   3.9907   4.0328   4.0356   4.2802
     4.2964   5.6847   5.6873   5.7112  11.4659  11.4908  11.4945

     occupation numbers 
     1.0000   1.0000   1.0000   1.0000   1.0000   1.0000   1.0000   1.0000
     1.0000   1.0000   1.0000   1.0000   1.0000   1.0000   1.0000   1.0000
     1.0000   0.0838   0.0815   0.0625   0.0000   0.0000   0.0000

          k = 0.4375 0.4625 0.4875 (  2534 PWs)   bands (ev):

   -30.3609 -19.9795 -12.3866 -12.3803 -12.3674  -8.6656  -8.6423  -8.6318
    -5.2997  -5.2983  -5.2897   3.5429   3.9938   4.0313   4.0370   4.2741
     4.2951   5.6893   5.6941   5.7164  11.4524  11.4781  11.4866

     occupation numbers 
     1.0000   1.0000   1.0000   1.0000   1.0000   1.0000   1.0000   1.0000
     1.0000   1.0000   1.0000   1.0000   1.0000   1.0000   1.0000   1.0000
     1.0000   0.0798   0.0756   0.0588   0.0000   0.0000   0.0000

          k = 0.4375 0.4875 0.4875 (  2533 PWs)   bands (ev):

   -30.3609 -19.9793 -12.3865 -12.3864 -12.3672  -8.6644  -8.6315  -8.6311
    -5.3006  -5.3003  -5.2944   3.5365   3.9971   4.0339   4.0345   4.2688
     4.2928   5.6970   5.6975   5.7217  11.4383  11.4719  11.4724

     occupation numbers 
     1.0000   1.0000   1.0000   1.0000   1.0000   1.0000   1.0000   1.0000
     1.0000   1.0000   1.0000   1.0000   1.0000   1.0000   1.0000   1.0000
     1.0000   0.0733   0.0729   0.0553   0.0000   0.0000   0.0000

          k = 0.4625 0.4625 0.4625 (  2530 PWs)   bands (ev):

   -30.3609 -19.9794 -12.3808 -12.3796 -12.3796  -8.6471  -8.6400  -8.6400
    -5.3012  -5.3012  -5.2929   3.5374   4.0050   4.0307   4.0307   4.2805
     4.2805   5.7007   5.7007   5.7150  11.4529  11.4642  11.4642

     occupation numbers 
     1.0000   1.0000   1.0000   1.0000   1.0000   1.0000   1.0000   1.0000
     1.0000   1.0000   1.0000   1.0000   1.0000   1.0000   1.0000   1.0000
     1.0000   0.0703   0.0703   0.0598   0.0000   0.0000   0.0000

          k = 0.4625 0.4625 0.4875 (  2526 PWs)   bands (ev):

   -30.3608 -19.9792 -12.3862 -12.3802 -12.3793  -8.6443  -8.6395  -8.6307
    -5.3032  -5.3024  -5.2973   3.5308   4.0099   4.0281   4.0319   4.2731
     4.2807   5.7056   5.7092   5.7192  11.4411  11.4490  11.4561

     occupation numbers 
     1.0000   1.0000   1.0000   1.0000   1.0000   1.0000   1.0000   1.0000
     1.0000   1.0000   1.0000   1.0000   1.0000   1.0000   1.0000   1.0000
     1.0000   0.0665   0.0639   0.0569   0.0000   0.0000   0.0000

          k = 0.4625 0.4875 0.4875 (  2519 PWs)   bands (ev):

   -30.3608 -19.9790 -12.3860 -12.3859 -12.3795  -8.6414  -8.6304  -8.6300
    -5.3045  -5.3043  -5.3016   3.5245   4.0155   4.0290   4.0296   4.2692
     4.2772   5.7142   5.7143   5.7232  11.4290  11.4404  11.4410

     occupation numbers 
     1.0000   1.0000   1.0000   1.0000   1.0000   1.0000   1.0000   1.0000
     1.0000   1.0000   1.0000   1.0000   1.0000   1.0000   1.0000   1.0000
     1.0000   0.0604   0.0603   0.0544   0.0000   0.0000   0.0000

          k = 0.4875 0.4875 0.4875 (  2512 PWs)   bands (ev):

   -30.3608 -19.9788 -12.3858 -12.3857 -12.3857  -8.6302  -8.6294  -8.6294
    -5.3064  -5.3064  -5.3054   3.5183   4.0243   4.0271   4.0271   4.2694
     4.2694   5.7226   5.7226   5.7242  11.4238  11.4251  11.4251

     occupation numbers 
     1.0000   1.0000   1.0000   1.0000   1.0000   1.0000   1.0000   1.0000
     1.0000   1.0000   1.0000   1.0000   1.0000   1.0000   1.0000   1.0000
     1.0000   0.0547   0.0547   0.0537   0.0000   0.0000   0.0000

     the Fermi energy is     5.5004 ev

!    total energy              =    -628.28677020 Ry
     estimated scf accuracy    <          7.3E-09 Ry
     smearing contrib. (-TS)   =      -0.00190808 Ry
     internal energy E=F+TS    =    -628.28486212 Ry

     The total energy is F=E-TS. E is the sum of the following terms:
     one-electron contribution =     -64.48363209 Ry
     hartree contribution      =      52.32516622 Ry
     xc contribution           =     -53.70760741 Ry
     ewald contribution        =    -166.45952522 Ry
     one-center paw contrib.   =    -395.95926363 Ry
      -> PAW hartree energy AE =      28.32949924 Ry
      -> PAW hartree energy PS =     -28.21290973 Ry
      -> PAW xc energy AE      =    -387.73034064 Ry
      -> PAW xc energy PS      =      19.01812446 Ry
      -> total E_H with PAW    =      52.44175573 Ry
      -> total E_XC with PAW   =    -422.41982359 Ry

     convergence has been achieved in  11 iterations

     Forces acting on atoms (cartesian axes, Ry/au):

     atom    1 type  1   force =     0.00000000    0.00000000    0.00000000
     atom    2 type  2   force =     0.00000000    0.00000000    0.00000000
     atom    3 type  3   force =     0.00000000    0.00000000    0.00000000
     atom    4 type  3   force =     0.00000000    0.00000000    0.00000000
     atom    5 type  3   force =     0.00000000    0.00000000    0.00000000
     The non-local contrib.  to forces
     atom    1 type  1   force =     0.00000000    0.00000000    0.00000000
     atom    2 type  2   force =     0.00000000    0.00000000    0.00000000
     atom    3 type  3   force =     0.00000000    0.00000000    0.00000000
     atom    4 type  3   force =     0.00000000    0.00000000    0.00000000
     atom    5 type  3   force =     0.00000000    0.00000000    0.00000000
     The ionic contribution  to forces
     atom    1 type  1   force =    -0.00000000   -0.00000000   -0.00000000
     atom    2 type  2   force =     0.00000000    0.00000000    0.00000000
     atom    3 type  3   force =     0.00000000    0.00000000   -0.00000000
     atom    4 type  3   force =     0.00000000   -0.00000000    0.00000000
     atom    5 type  3   force =    -0.00000000    0.00000000    0.00000000
     The local contribution  to forces
     atom    1 type  1   force =     0.00000000    0.00000000    0.00000000
     atom    2 type  2   force =     0.00000000    0.00000000    0.00000000
     atom    3 type  3   force =     0.00000000    0.00000000    0.00000000
     atom    4 type  3   force =     0.00000000    0.00000000    0.00000000
     atom    5 type  3   force =     0.00000000    0.00000000    0.00000000
     The core correction contribution to forces
     atom    1 type  1   force =     0.00000000    0.00000000    0.00000000
     atom    2 type  2   force =    -0.00000000   -0.00000000   -0.00000000
     atom    3 type  3   force =     0.00000000    0.00000000    0.00000000
     atom    4 type  3   force =     0.00000000    0.00000000   -0.00000000
     atom    5 type  3   force =     0.00000000   -0.00000000    0.00000000
     The Hubbard contrib.    to forces
     atom    1 type  1   force =     0.00000000    0.00000000    0.00000000
     atom    2 type  2   force =     0.00000000    0.00000000    0.00000000
     atom    3 type  3   force =     0.00000000    0.00000000    0.00000000
     atom    4 type  3   force =     0.00000000    0.00000000    0.00000000
     atom    5 type  3   force =     0.00000000    0.00000000    0.00000000
     The SCF correction term to forces
     atom    1 type  1   force =     0.00000000    0.00000000   -0.00000000
     atom    2 type  2   force =     0.00000000   -0.00000000    0.00000000
     atom    3 type  3   force =     0.00000000   -0.00000000    0.00000000
     atom    4 type  3   force =     0.00000000    0.00000000   -0.00000000
     atom    5 type  3   force =    -0.00000000    0.00000000   -0.00000000

     Total force =     0.000000     Total SCF correction =     0.000000


     Computing stress (Cartesian axis) and pressure

          total   stress  (Ry/bohr**3)                   (kbar)     P=      -65.69
  -0.00044657   0.00000000   0.00000000          -65.69        0.00        0.00
   0.00000000  -0.00044657   0.00000000            0.00      -65.69        0.00
   0.00000000   0.00000000  -0.00044657            0.00        0.00      -65.69

     kinetic stress (kbar)  14362.01      0.00      0.00
                                0.00  14362.01      0.00
                                0.00      0.00  14362.01

     local   stress (kbar)  -6185.36      0.00      0.00
                                0.00  -6185.36     -0.00
                                0.00     -0.00  -6185.36

     nonloc. stress (kbar)   4519.39      0.00      0.00
                                0.00   4519.39      0.00
                                0.00      0.00   4519.39

     hartree stress (kbar)   4272.91     -0.00     -0.00
                               -0.00   4272.91      0.00
                               -0.00      0.00   4272.91

     exc-cor stress (kbar)    451.51     -0.00     -0.00
                               -0.00    451.51     -0.00
                               -0.00     -0.00    451.51

     corecor stress (kbar)  -3892.95      0.00     -0.00
                                0.00  -3892.95     -0.00
                               -0.00     -0.00  -3892.95

     ewald   stress (kbar) -13593.20     -0.00     -0.00
                               -0.00 -13593.20     -0.00
                               -0.00     -0.00 -13593.20

     hubbard stress (kbar)      0.00      0.00      0.00
                                0.00      0.00      0.00
                                0.00      0.00      0.00

     DFT-D   stress (kbar)      0.00      0.00      0.00
                                0.00      0.00      0.00
                                0.00      0.00      0.00

     XDM     stress (kbar)      0.00      0.00      0.00
                                0.00      0.00      0.00
                                0.00      0.00      0.00

     dft-nl  stress (kbar)      0.00      0.00      0.00
                                0.00      0.00      0.00
                                0.00      0.00      0.00

     TS-vdW  stress (kbar)      0.00      0.00      0.00
                                0.00      0.00      0.00
                                0.00      0.00      0.00

     MDB     stress (kbar)      0.00      0.00      0.00
                                0.00      0.00      0.00
                                0.00      0.00      0.00

     3D-RISM stress (kbar)      0.00      0.00      0.00
                                0.00      0.00      0.00
                                0.00      0.00      0.00


     Writing all to output data dir ./out/BCO.save/ :
     XML data file, charge density, pseudopotentials, collected wavefunctions

     init_run     :      9.74s CPU     10.37s WALL (       1 calls)
     electrons    :    392.56s CPU    403.47s WALL (       1 calls)
     forces       :      3.24s CPU      3.29s WALL (       1 calls)
     stress       :     14.08s CPU     14.24s WALL (       1 calls)

     Called by init_run:
     wfcinit      :      9.16s CPU      9.72s WALL (       1 calls)
     wfcinit:atom :      0.07s CPU      0.07s WALL (     770 calls)
     wfcinit:wfcr :      8.80s CPU      9.33s WALL (     770 calls)
     potinit      :      0.23s CPU      0.24s WALL (       1 calls)
     hinit0       :      0.23s CPU      0.24s WALL (       1 calls)

     Called by electrons:
     c_bands      :    354.23s CPU    363.75s WALL (      11 calls)
     sum_band     :     36.75s CPU     37.94s WALL (      11 calls)
     v_of_rho     :      0.15s CPU      0.15s WALL (      12 calls)
     v_h          :      0.01s CPU      0.01s WALL (      12 calls)
     v_xc         :      0.15s CPU      0.16s WALL (      14 calls)
     newd         :      0.61s CPU      0.63s WALL (      12 calls)
     PAW_pot      :      0.79s CPU      0.82s WALL (      12 calls)
     mix_rho      :      0.02s CPU      0.02s WALL (      11 calls)

     Called by c_bands:
     init_us_2    :      2.69s CPU      2.75s WALL (   19250 calls)
     init_us_2:cp :      2.66s CPU      2.73s WALL (   19250 calls)
     cegterg      :    301.84s CPU    310.43s WALL (    8470 calls)

     Called by sum_band:
     sum_band:wei :      0.28s CPU      0.28s WALL (      11 calls)
     sum_band:loo :     34.80s CPU     35.95s WALL (      11 calls)
     sum_band:buf :      0.22s CPU      0.23s WALL (    8470 calls)
     sum_band:ini :      1.02s CPU      1.04s WALL (    8470 calls)
     sum_band:cal :      8.90s CPU      9.18s WALL (    8470 calls)
     sum_band:bec :      0.31s CPU      0.32s WALL (    8470 calls)
     addusdens    :      0.53s CPU      0.55s WALL (      11 calls)
                                        0.00s GPU  (      11 calls)
     addusd:skk   :      0.00s CPU      0.00s WALL (      33 calls)
                                        0.00s GPU  (      33 calls)

     Called by *egterg:
     cdiaghg      :     34.53s CPU     35.46s WALL (   44644 calls)
     cegterg:over :     28.49s CPU     29.41s WALL (   36174 calls)
     cegterg:upda :     10.13s CPU     10.31s WALL (   36174 calls)
     cegterg:last :     24.59s CPU     25.00s WALL (   19152 calls)
     h_psi        :    168.56s CPU    174.09s WALL (   45414 calls)
     s_psi        :     21.21s CPU     21.70s WALL (   45414 calls)
     g_psi        :      0.44s CPU      0.45s WALL (   36174 calls)

     Called by h_psi:
     h_psi:calbec :     26.49s CPU     27.54s WALL (   45414 calls)
     vloc_psi     :    120.32s CPU    124.35s WALL (   45414 calls)
     add_vuspsi   :     21.22s CPU     21.67s WALL (   45414 calls)

     General routines
     calbec       :     40.24s CPU     41.65s WALL (   57734 calls)
     fft          :      0.23s CPU      0.24s WALL (     179 calls)
     ffts         :      0.17s CPU      0.17s WALL (      23 calls)
     fftw         :    128.52s CPU    132.86s WALL ( 1295046 calls)
     interpolate  :      0.18s CPU      0.18s WALL (      12 calls)

     Parallel routines

     PAW routines
     PAW_pot      :      0.79s CPU      0.82s WALL (      12 calls)
     PAW_symme    :      0.01s CPU      0.01s WALL (      23 calls)

     PWSCF        :   7m 1.74s CPU   7m14.31s WALL


   This run was terminated on:  19:29:54   8Apr2025            

=------------------------------------------------------------------------------=
   JOB DONE.
=------------------------------------------------------------------------------=
