
     Program PWSCF v.7.3 starts on  7Apr2025 at 18:55:25 

     This program is part of the open-source Quantum ESPRESSO suite
     for quantum simulation of materials; please cite
         "P. Giannozzi et al., J. Phys.:Condens. Matter 21 395502 (2009);
         "P. Giannozzi et al., J. Phys.:Condens. Matter 29 465901 (2017);
         "P. Giannozzi et al., J. Chem. Phys. 152 154105 (2020);
          URL http://www.quantum-espresso.org", 
     in publications or presentations arising from this work. More details at
     http://www.quantum-espresso.org/quote

     Parallel version (MPI), running on    20 processors

     MPI processes distributed on     1 nodes
     26249 MiB available memory on the printing compute node when the environment starts

     Waiting for input...
     Reading input from standard input

     Current dimensions of program PWSCF are:
     Max number of different atomic species (ntypx) = 10
     Max number of k-points (npk) = 120000
     Max angular momentum in pseudopotentials (lmaxx) =  4
     file Ba.pbesol-spn-kjpaw_psl.1.0.0.UPF: wavefunction(s)  5S 6S renormalized
     file O.pbesol-n-kjpaw_psl.0.1.UPF: wavefunction(s)  2P renormalized
     Message from routine setup:
     using ibrav=0 with symmetry is DISCOURAGED, use correct ibrav instead

     K-points division:     npool     =       2
     R & G space division:  proc/nbgrp/npool/nimage =      10
     Subspace diagonalization in iterative solution of the eigenvalue problem:
     a serial algorithm will be used


     Parallelization info
     --------------------
     sticks:   dense  smooth     PW     G-vecs:    dense   smooth      PW
     Min         224      88     27                 8096     2036     339
     Max         225      90     28                 8101     2039     342
     Sum        2249     889    277                80989    20377    3407

     Using Slab Decomposition



     bravais-lattice index     =            0
     lattice parameter (alat)  =       8.4365  a.u.
     unit-cell volume          =     600.4730 (a.u.)^3
     number of atoms/cell      =            5
     number of atomic types    =            3
     number of electrons       =        38.00
     number of Kohn-Sham states=           23
     kinetic-energy cutoff     =      40.0000  Ry
     charge density cutoff     =     400.0000  Ry
     scf convergence threshold =      1.0E-07
     mixing beta               =       0.4000
     number of iterations used =            8  plain     mixing
     Exchange-correlation= SLA  PW   PSX  PSC
                           (   1   4  10   8   0   0   0)

     celldm(1)=   8.436542  celldm(2)=   0.000000  celldm(3)=   0.000000
     celldm(4)=   0.000000  celldm(5)=   0.000000  celldm(6)=   0.000000

     crystal axes: (cart. coord. in units of alat)
               a(1) = (   1.000000   0.000000   0.000000 )  
               a(2) = (   0.000000   1.000000   0.000000 )  
               a(3) = (   0.000000   0.000000   1.000000 )  

     reciprocal axes: (cart. coord. in units 2 pi/alat)
               b(1) = (  1.000000  0.000000  0.000000 )  
               b(2) = (  0.000000  1.000000  0.000000 )  
               b(3) = (  0.000000  0.000000  1.000000 )  


     PseudoPot. # 1 for Ba read from file:
     ./pseudo/Ba.pbesol-spn-kjpaw_psl.1.0.0.UPF
     MD5 check sum: f28c4a63d325c1a0d00fd3a4f19b8d73
     Pseudo is Projector augmented-wave + core cor, Zval = 10.0
     Generated using "atomic" code by A. Dal Corso  v.6.0 svn rev. 13079
     Shape of augmentation charge: PSQ
     Using radial grid of 1251 points,  7 beta functions with: 
                l(1) =   0
                l(2) =   0
                l(3) =   0
                l(4) =   1
                l(5) =   1
                l(6) =   2
                l(7) =   2
     Q(r) pseudized with 0 coefficients 


     PseudoPot. # 2 for Ca read from file:
     ./pseudo/ca_pbesol_v1.uspp.F.UPF
     MD5 check sum: 0533207b58cddeaa036efa5b63902087
     Pseudo is Ultrasoft + core correction, Zval = 10.0
     Generated by new atomic code, or converted to UPF format
     Using radial grid of  845 points,  6 beta functions with: 
                l(1) =   0
                l(2) =   0
                l(3) =   1
                l(4) =   1
                l(5) =   2
                l(6) =   2
     Q(r) pseudized with  8 coefficients,  rinner =    1.500   1.500   1.500
                                                       1.500   1.500

     PseudoPot. # 3 for O  read from file:
     ./pseudo/O.pbesol-n-kjpaw_psl.0.1.UPF
     MD5 check sum: 81d73d1479e654e5638b0319f0d6c2c7
     Pseudo is Projector augmented-wave + core cor, Zval =  6.0
     Generated using "atomic" code by A. Dal Corso  v.6.0 svn rev. 13079
     Shape of augmentation charge: BESSEL
     Using radial grid of 1095 points,  4 beta functions with: 
                l(1) =   0
                l(2) =   0
                l(3) =   1
                l(4) =   1
     Q(r) pseudized with 0 coefficients 


     atomic species   valence    mass     pseudopotential
     Ba               10.00   137.32700     Ba( 1.00)
     Ca               10.00    40.07800     Ca( 1.00)
     O                 6.00    15.99940     O ( 1.00)

     48 Sym. Ops., with inversion, found


                                    s                        frac. trans.

      isym =  1     identity                                     

 cryst.   s( 1) = (     1          0          0      )
                  (     0          1          0      )
                  (     0          0          1      )

 cart.    s( 1) = (  1.0000000  0.0000000  0.0000000 )
                  (  0.0000000  1.0000000  0.0000000 )
                  (  0.0000000  0.0000000  1.0000000 )


      isym =  2     180 deg rotation - cart. axis [0,0,1]        

 cryst.   s( 2) = (    -1          0          0      )
                  (     0         -1          0      )
                  (     0          0          1      )

 cart.    s( 2) = ( -1.0000000  0.0000000  0.0000000 )
                  (  0.0000000 -1.0000000  0.0000000 )
                  (  0.0000000  0.0000000  1.0000000 )


      isym =  3     180 deg rotation - cart. axis [0,1,0]        

 cryst.   s( 3) = (    -1          0          0      )
                  (     0          1          0      )
                  (     0          0         -1      )

 cart.    s( 3) = ( -1.0000000  0.0000000  0.0000000 )
                  (  0.0000000  1.0000000  0.0000000 )
                  (  0.0000000  0.0000000 -1.0000000 )


      isym =  4     180 deg rotation - cart. axis [1,0,0]        

 cryst.   s( 4) = (     1          0          0      )
                  (     0         -1          0      )
                  (     0          0         -1      )

 cart.    s( 4) = (  1.0000000  0.0000000  0.0000000 )
                  (  0.0000000 -1.0000000  0.0000000 )
                  (  0.0000000  0.0000000 -1.0000000 )


      isym =  5     180 deg rotation - cart. axis [1,1,0]        

 cryst.   s( 5) = (     0          1          0      )
                  (     1          0          0      )
                  (     0          0         -1      )

 cart.    s( 5) = (  0.0000000  1.0000000  0.0000000 )
                  (  1.0000000  0.0000000  0.0000000 )
                  (  0.0000000  0.0000000 -1.0000000 )


      isym =  6     180 deg rotation - cart. axis [1,-1,0]       

 cryst.   s( 6) = (     0         -1          0      )
                  (    -1          0          0      )
                  (     0          0         -1      )

 cart.    s( 6) = (  0.0000000 -1.0000000  0.0000000 )
                  ( -1.0000000  0.0000000  0.0000000 )
                  (  0.0000000  0.0000000 -1.0000000 )


      isym =  7      90 deg rotation - cart. axis [0,0,-1]       

 cryst.   s( 7) = (     0         -1          0      )
                  (     1          0          0      )
                  (     0          0          1      )

 cart.    s( 7) = (  0.0000000  1.0000000  0.0000000 )
                  ( -1.0000000  0.0000000  0.0000000 )
                  (  0.0000000  0.0000000  1.0000000 )


      isym =  8      90 deg rotation - cart. axis [0,0,1]        

 cryst.   s( 8) = (     0          1          0      )
                  (    -1          0          0      )
                  (     0          0          1      )

 cart.    s( 8) = (  0.0000000 -1.0000000  0.0000000 )
                  (  1.0000000  0.0000000  0.0000000 )
                  (  0.0000000  0.0000000  1.0000000 )


      isym =  9     180 deg rotation - cart. axis [1,0,1]        

 cryst.   s( 9) = (     0          0          1      )
                  (     0         -1          0      )
                  (     1          0          0      )

 cart.    s( 9) = (  0.0000000  0.0000000  1.0000000 )
                  (  0.0000000 -1.0000000  0.0000000 )
                  (  1.0000000  0.0000000  0.0000000 )


      isym = 10     180 deg rotation - cart. axis [-1,0,1]       

 cryst.   s(10) = (     0          0         -1      )
                  (     0         -1          0      )
                  (    -1          0          0      )

 cart.    s(10) = (  0.0000000  0.0000000 -1.0000000 )
                  (  0.0000000 -1.0000000  0.0000000 )
                  ( -1.0000000  0.0000000  0.0000000 )


      isym = 11      90 deg rotation - cart. axis [0,1,0]        

 cryst.   s(11) = (     0          0         -1      )
                  (     0          1          0      )
                  (     1          0          0      )

 cart.    s(11) = (  0.0000000  0.0000000  1.0000000 )
                  (  0.0000000  1.0000000  0.0000000 )
                  ( -1.0000000  0.0000000  0.0000000 )


      isym = 12      90 deg rotation - cart. axis [0,-1,0]       

 cryst.   s(12) = (     0          0          1      )
                  (     0          1          0      )
                  (    -1          0          0      )

 cart.    s(12) = (  0.0000000  0.0000000 -1.0000000 )
                  (  0.0000000  1.0000000  0.0000000 )
                  (  1.0000000  0.0000000  0.0000000 )


      isym = 13     180 deg rotation - cart. axis [0,1,1]        

 cryst.   s(13) = (    -1          0          0      )
                  (     0          0          1      )
                  (     0          1          0      )

 cart.    s(13) = ( -1.0000000  0.0000000  0.0000000 )
                  (  0.0000000  0.0000000  1.0000000 )
                  (  0.0000000  1.0000000  0.0000000 )


      isym = 14     180 deg rotation - cart. axis [0,1,-1]       

 cryst.   s(14) = (    -1          0          0      )
                  (     0          0         -1      )
                  (     0         -1          0      )

 cart.    s(14) = ( -1.0000000  0.0000000  0.0000000 )
                  (  0.0000000  0.0000000 -1.0000000 )
                  (  0.0000000 -1.0000000  0.0000000 )


      isym = 15      90 deg rotation - cart. axis [-1,0,0]       

 cryst.   s(15) = (     1          0          0      )
                  (     0          0         -1      )
                  (     0          1          0      )

 cart.    s(15) = (  1.0000000  0.0000000  0.0000000 )
                  (  0.0000000  0.0000000  1.0000000 )
                  (  0.0000000 -1.0000000  0.0000000 )


      isym = 16      90 deg rotation - cart. axis [1,0,0]        

 cryst.   s(16) = (     1          0          0      )
                  (     0          0          1      )
                  (     0         -1          0      )

 cart.    s(16) = (  1.0000000  0.0000000  0.0000000 )
                  (  0.0000000  0.0000000 -1.0000000 )
                  (  0.0000000  1.0000000  0.0000000 )


      isym = 17     120 deg rotation - cart. axis [-1,-1,-1]     

 cryst.   s(17) = (     0          0          1      )
                  (     1          0          0      )
                  (     0          1          0      )

 cart.    s(17) = (  0.0000000  1.0000000  0.0000000 )
                  (  0.0000000  0.0000000  1.0000000 )
                  (  1.0000000  0.0000000  0.0000000 )


      isym = 18     120 deg rotation - cart. axis [-1,1,1]       

 cryst.   s(18) = (     0          0         -1      )
                  (    -1          0          0      )
                  (     0          1          0      )

 cart.    s(18) = (  0.0000000 -1.0000000  0.0000000 )
                  (  0.0000000  0.0000000  1.0000000 )
                  ( -1.0000000  0.0000000  0.0000000 )


      isym = 19     120 deg rotation - cart. axis [1,1,-1]       

 cryst.   s(19) = (     0          0         -1      )
                  (     1          0          0      )
                  (     0         -1          0      )

 cart.    s(19) = (  0.0000000  1.0000000  0.0000000 )
                  (  0.0000000  0.0000000 -1.0000000 )
                  ( -1.0000000  0.0000000  0.0000000 )


      isym = 20     120 deg rotation - cart. axis [1,-1,1]       

 cryst.   s(20) = (     0          0          1      )
                  (    -1          0          0      )
                  (     0         -1          0      )

 cart.    s(20) = (  0.0000000 -1.0000000  0.0000000 )
                  (  0.0000000  0.0000000 -1.0000000 )
                  (  1.0000000  0.0000000  0.0000000 )


      isym = 21     120 deg rotation - cart. axis [1,1,1]        

 cryst.   s(21) = (     0          1          0      )
                  (     0          0          1      )
                  (     1          0          0      )

 cart.    s(21) = (  0.0000000  0.0000000  1.0000000 )
                  (  1.0000000  0.0000000  0.0000000 )
                  (  0.0000000  1.0000000  0.0000000 )


      isym = 22     120 deg rotation - cart. axis [-1,1,-1]      

 cryst.   s(22) = (     0         -1          0      )
                  (     0          0         -1      )
                  (     1          0          0      )

 cart.    s(22) = (  0.0000000  0.0000000  1.0000000 )
                  ( -1.0000000  0.0000000  0.0000000 )
                  (  0.0000000 -1.0000000  0.0000000 )


      isym = 23     120 deg rotation - cart. axis [1,-1,-1]      

 cryst.   s(23) = (     0         -1          0      )
                  (     0          0          1      )
                  (    -1          0          0      )

 cart.    s(23) = (  0.0000000  0.0000000 -1.0000000 )
                  ( -1.0000000  0.0000000  0.0000000 )
                  (  0.0000000  1.0000000  0.0000000 )


      isym = 24     120 deg rotation - cart. axis [-1,-1,1]      

 cryst.   s(24) = (     0          1          0      )
                  (     0          0         -1      )
                  (    -1          0          0      )

 cart.    s(24) = (  0.0000000  0.0000000 -1.0000000 )
                  (  1.0000000  0.0000000  0.0000000 )
                  (  0.0000000 -1.0000000  0.0000000 )


      isym = 25     inversion                                    

 cryst.   s(25) = (    -1          0          0      )
                  (     0         -1          0      )
                  (     0          0         -1      )

 cart.    s(25) = ( -1.0000000  0.0000000  0.0000000 )
                  (  0.0000000 -1.0000000  0.0000000 )
                  (  0.0000000  0.0000000 -1.0000000 )


      isym = 26     inv. 180 deg rotation - cart. axis [0,0,1]   

 cryst.   s(26) = (     1          0          0      )
                  (     0          1          0      )
                  (     0          0         -1      )

 cart.    s(26) = (  1.0000000  0.0000000  0.0000000 )
                  (  0.0000000  1.0000000  0.0000000 )
                  (  0.0000000  0.0000000 -1.0000000 )


      isym = 27     inv. 180 deg rotation - cart. axis [0,1,0]   

 cryst.   s(27) = (     1          0          0      )
                  (     0         -1          0      )
                  (     0          0          1      )

 cart.    s(27) = (  1.0000000  0.0000000  0.0000000 )
                  (  0.0000000 -1.0000000  0.0000000 )
                  (  0.0000000  0.0000000  1.0000000 )


      isym = 28     inv. 180 deg rotation - cart. axis [1,0,0]   

 cryst.   s(28) = (    -1          0          0      )
                  (     0          1          0      )
                  (     0          0          1      )

 cart.    s(28) = ( -1.0000000  0.0000000  0.0000000 )
                  (  0.0000000  1.0000000  0.0000000 )
                  (  0.0000000  0.0000000  1.0000000 )


      isym = 29     inv. 180 deg rotation - cart. axis [1,1,0]   

 cryst.   s(29) = (     0         -1          0      )
                  (    -1          0          0      )
                  (     0          0          1      )

 cart.    s(29) = (  0.0000000 -1.0000000  0.0000000 )
                  ( -1.0000000  0.0000000  0.0000000 )
                  (  0.0000000  0.0000000  1.0000000 )


      isym = 30     inv. 180 deg rotation - cart. axis [1,-1,0]  

 cryst.   s(30) = (     0          1          0      )
                  (     1          0          0      )
                  (     0          0          1      )

 cart.    s(30) = (  0.0000000  1.0000000  0.0000000 )
                  (  1.0000000  0.0000000  0.0000000 )
                  (  0.0000000  0.0000000  1.0000000 )


      isym = 31     inv.  90 deg rotation - cart. axis [0,0,-1]  

 cryst.   s(31) = (     0          1          0      )
                  (    -1          0          0      )
                  (     0          0         -1      )

 cart.    s(31) = (  0.0000000 -1.0000000  0.0000000 )
                  (  1.0000000  0.0000000  0.0000000 )
                  (  0.0000000  0.0000000 -1.0000000 )


      isym = 32     inv.  90 deg rotation - cart. axis [0,0,1]   

 cryst.   s(32) = (     0         -1          0      )
                  (     1          0          0      )
                  (     0          0         -1      )

 cart.    s(32) = (  0.0000000  1.0000000  0.0000000 )
                  ( -1.0000000  0.0000000  0.0000000 )
                  (  0.0000000  0.0000000 -1.0000000 )


      isym = 33     inv. 180 deg rotation - cart. axis [1,0,1]   

 cryst.   s(33) = (     0          0         -1      )
                  (     0          1          0      )
                  (    -1          0          0      )

 cart.    s(33) = (  0.0000000  0.0000000 -1.0000000 )
                  (  0.0000000  1.0000000  0.0000000 )
                  ( -1.0000000  0.0000000  0.0000000 )


      isym = 34     inv. 180 deg rotation - cart. axis [-1,0,1]  

 cryst.   s(34) = (     0          0          1      )
                  (     0          1          0      )
                  (     1          0          0      )

 cart.    s(34) = (  0.0000000  0.0000000  1.0000000 )
                  (  0.0000000  1.0000000  0.0000000 )
                  (  1.0000000  0.0000000  0.0000000 )


      isym = 35     inv.  90 deg rotation - cart. axis [0,1,0]   

 cryst.   s(35) = (     0          0          1      )
                  (     0         -1          0      )
                  (    -1          0          0      )

 cart.    s(35) = (  0.0000000  0.0000000 -1.0000000 )
                  (  0.0000000 -1.0000000  0.0000000 )
                  (  1.0000000  0.0000000  0.0000000 )


      isym = 36     inv.  90 deg rotation - cart. axis [0,-1,0]  

 cryst.   s(36) = (     0          0         -1      )
                  (     0         -1          0      )
                  (     1          0          0      )

 cart.    s(36) = (  0.0000000  0.0000000  1.0000000 )
                  (  0.0000000 -1.0000000  0.0000000 )
                  ( -1.0000000  0.0000000  0.0000000 )


      isym = 37     inv. 180 deg rotation - cart. axis [0,1,1]   

 cryst.   s(37) = (     1          0          0      )
                  (     0          0         -1      )
                  (     0         -1          0      )

 cart.    s(37) = (  1.0000000  0.0000000  0.0000000 )
                  (  0.0000000  0.0000000 -1.0000000 )
                  (  0.0000000 -1.0000000  0.0000000 )


      isym = 38     inv. 180 deg rotation - cart. axis [0,1,-1]  

 cryst.   s(38) = (     1          0          0      )
                  (     0          0          1      )
                  (     0          1          0      )

 cart.    s(38) = (  1.0000000  0.0000000  0.0000000 )
                  (  0.0000000  0.0000000  1.0000000 )
                  (  0.0000000  1.0000000  0.0000000 )


      isym = 39     inv.  90 deg rotation - cart. axis [-1,0,0]  

 cryst.   s(39) = (    -1          0          0      )
                  (     0          0          1      )
                  (     0         -1          0      )

 cart.    s(39) = ( -1.0000000  0.0000000  0.0000000 )
                  (  0.0000000  0.0000000 -1.0000000 )
                  (  0.0000000  1.0000000  0.0000000 )


      isym = 40     inv.  90 deg rotation - cart. axis [1,0,0]   

 cryst.   s(40) = (    -1          0          0      )
                  (     0          0         -1      )
                  (     0          1          0      )

 cart.    s(40) = ( -1.0000000  0.0000000  0.0000000 )
                  (  0.0000000  0.0000000  1.0000000 )
                  (  0.0000000 -1.0000000  0.0000000 )


      isym = 41     inv. 120 deg rotation - cart. axis [-1,-1,-1]

 cryst.   s(41) = (     0          0         -1      )
                  (    -1          0          0      )
                  (     0         -1          0      )

 cart.    s(41) = (  0.0000000 -1.0000000  0.0000000 )
                  (  0.0000000  0.0000000 -1.0000000 )
                  ( -1.0000000  0.0000000  0.0000000 )


      isym = 42     inv. 120 deg rotation - cart. axis [-1,1,1]  

 cryst.   s(42) = (     0          0          1      )
                  (     1          0          0      )
                  (     0         -1          0      )

 cart.    s(42) = (  0.0000000  1.0000000  0.0000000 )
                  (  0.0000000  0.0000000 -1.0000000 )
                  (  1.0000000  0.0000000  0.0000000 )


      isym = 43     inv. 120 deg rotation - cart. axis [1,1,-1]  

 cryst.   s(43) = (     0          0          1      )
                  (    -1          0          0      )
                  (     0          1          0      )

 cart.    s(43) = (  0.0000000 -1.0000000  0.0000000 )
                  (  0.0000000  0.0000000  1.0000000 )
                  (  1.0000000  0.0000000  0.0000000 )


      isym = 44     inv. 120 deg rotation - cart. axis [1,-1,1]  

 cryst.   s(44) = (     0          0         -1      )
                  (     1          0          0      )
                  (     0          1          0      )

 cart.    s(44) = (  0.0000000  1.0000000  0.0000000 )
                  (  0.0000000  0.0000000  1.0000000 )
                  ( -1.0000000  0.0000000  0.0000000 )


      isym = 45     inv. 120 deg rotation - cart. axis [1,1,1]   

 cryst.   s(45) = (     0         -1          0      )
                  (     0          0         -1      )
                  (    -1          0          0      )

 cart.    s(45) = (  0.0000000  0.0000000 -1.0000000 )
                  ( -1.0000000  0.0000000  0.0000000 )
                  (  0.0000000 -1.0000000  0.0000000 )


      isym = 46     inv. 120 deg rotation - cart. axis [-1,1,-1] 

 cryst.   s(46) = (     0          1          0      )
                  (     0          0          1      )
                  (    -1          0          0      )

 cart.    s(46) = (  0.0000000  0.0000000 -1.0000000 )
                  (  1.0000000  0.0000000  0.0000000 )
                  (  0.0000000  1.0000000  0.0000000 )


      isym = 47     inv. 120 deg rotation - cart. axis [1,-1,-1] 

 cryst.   s(47) = (     0          1          0      )
                  (     0          0         -1      )
                  (     1          0          0      )

 cart.    s(47) = (  0.0000000  0.0000000  1.0000000 )
                  (  1.0000000  0.0000000  0.0000000 )
                  (  0.0000000 -1.0000000  0.0000000 )


      isym = 48     inv. 120 deg rotation - cart. axis [-1,-1,1] 

 cryst.   s(48) = (     0         -1          0      )
                  (     0          0          1      )
                  (     1          0          0      )

 cart.    s(48) = (  0.0000000  0.0000000  1.0000000 )
                  ( -1.0000000  0.0000000  0.0000000 )
                  (  0.0000000  1.0000000  0.0000000 )


   Cartesian axes

     site n.     atom                  positions (alat units)
         1        Ba     tau(   1) = (   0.0000000   0.0000000   0.0000000  )
         2        Ca     tau(   2) = (   0.5000000   0.5000000   0.5000000  )
         3        O      tau(   3) = (   0.5000000   0.5000000   0.0000000  )
         4        O      tau(   4) = (   0.5000000   0.0000000   0.5000000  )
         5        O      tau(   5) = (   0.0000000   0.5000000   0.5000000  )

   Crystallographic axes

     site n.     atom                  positions (cryst. coord.)
         1        Ba     tau(   1) = (  0.0000000  0.0000000  0.0000000  )
         2        Ca     tau(   2) = (  0.5000000  0.5000000  0.5000000  )
         3        O      tau(   3) = (  0.5000000  0.5000000  0.0000000  )
         4        O      tau(   4) = (  0.5000000  0.0000000  0.5000000  )
         5        O      tau(   5) = (  0.0000000  0.5000000  0.5000000  )

     number of k points=    84  Marzari-Vanderbilt smearing, width (Ry)=  0.0200
                       cart. coord. in units 2pi/alat
        k(    1) = (   0.0357143   0.0357143   0.0357143), wk =   0.0058309
        k(    2) = (   0.0357143   0.0357143   0.1071429), wk =   0.0174927
        k(    3) = (   0.0357143   0.0357143   0.1785714), wk =   0.0174927
        k(    4) = (   0.0357143   0.0357143   0.2500000), wk =   0.0174927
        k(    5) = (   0.0357143   0.0357143   0.3214286), wk =   0.0174927
        k(    6) = (   0.0357143   0.0357143   0.3928571), wk =   0.0174927
        k(    7) = (   0.0357143   0.0357143   0.4642857), wk =   0.0174927
        k(    8) = (   0.0357143   0.1071429   0.1071429), wk =   0.0174927
        k(    9) = (   0.0357143   0.1071429   0.1785714), wk =   0.0349854
        k(   10) = (   0.0357143   0.1071429   0.2500000), wk =   0.0349854
        k(   11) = (   0.0357143   0.1071429   0.3214286), wk =   0.0349854
        k(   12) = (   0.0357143   0.1071429   0.3928571), wk =   0.0349854
        k(   13) = (   0.0357143   0.1071429   0.4642857), wk =   0.0349854
        k(   14) = (   0.0357143   0.1785714   0.1785714), wk =   0.0174927
        k(   15) = (   0.0357143   0.1785714   0.2500000), wk =   0.0349854
        k(   16) = (   0.0357143   0.1785714   0.3214286), wk =   0.0349854
        k(   17) = (   0.0357143   0.1785714   0.3928571), wk =   0.0349854
        k(   18) = (   0.0357143   0.1785714   0.4642857), wk =   0.0349854
        k(   19) = (   0.0357143   0.2500000   0.2500000), wk =   0.0174927
        k(   20) = (   0.0357143   0.2500000   0.3214286), wk =   0.0349854
        k(   21) = (   0.0357143   0.2500000   0.3928571), wk =   0.0349854
        k(   22) = (   0.0357143   0.2500000   0.4642857), wk =   0.0349854
        k(   23) = (   0.0357143   0.3214286   0.3214286), wk =   0.0174927
        k(   24) = (   0.0357143   0.3214286   0.3928571), wk =   0.0349854
        k(   25) = (   0.0357143   0.3214286   0.4642857), wk =   0.0349854
        k(   26) = (   0.0357143   0.3928571   0.3928571), wk =   0.0174927
        k(   27) = (   0.0357143   0.3928571   0.4642857), wk =   0.0349854
        k(   28) = (   0.0357143   0.4642857   0.4642857), wk =   0.0174927
        k(   29) = (   0.1071429   0.1071429   0.1071429), wk =   0.0058309
        k(   30) = (   0.1071429   0.1071429   0.1785714), wk =   0.0174927
        k(   31) = (   0.1071429   0.1071429   0.2500000), wk =   0.0174927
        k(   32) = (   0.1071429   0.1071429   0.3214286), wk =   0.0174927
        k(   33) = (   0.1071429   0.1071429   0.3928571), wk =   0.0174927
        k(   34) = (   0.1071429   0.1071429   0.4642857), wk =   0.0174927
        k(   35) = (   0.1071429   0.1785714   0.1785714), wk =   0.0174927
        k(   36) = (   0.1071429   0.1785714   0.2500000), wk =   0.0349854
        k(   37) = (   0.1071429   0.1785714   0.3214286), wk =   0.0349854
        k(   38) = (   0.1071429   0.1785714   0.3928571), wk =   0.0349854
        k(   39) = (   0.1071429   0.1785714   0.4642857), wk =   0.0349854
        k(   40) = (   0.1071429   0.2500000   0.2500000), wk =   0.0174927
        k(   41) = (   0.1071429   0.2500000   0.3214286), wk =   0.0349854
        k(   42) = (   0.1071429   0.2500000   0.3928571), wk =   0.0349854
        k(   43) = (   0.1071429   0.2500000   0.4642857), wk =   0.0349854
        k(   44) = (   0.1071429   0.3214286   0.3214286), wk =   0.0174927
        k(   45) = (   0.1071429   0.3214286   0.3928571), wk =   0.0349854
        k(   46) = (   0.1071429   0.3214286   0.4642857), wk =   0.0349854
        k(   47) = (   0.1071429   0.3928571   0.3928571), wk =   0.0174927
        k(   48) = (   0.1071429   0.3928571   0.4642857), wk =   0.0349854
        k(   49) = (   0.1071429   0.4642857   0.4642857), wk =   0.0174927
        k(   50) = (   0.1785714   0.1785714   0.1785714), wk =   0.0058309
        k(   51) = (   0.1785714   0.1785714   0.2500000), wk =   0.0174927
        k(   52) = (   0.1785714   0.1785714   0.3214286), wk =   0.0174927
        k(   53) = (   0.1785714   0.1785714   0.3928571), wk =   0.0174927
        k(   54) = (   0.1785714   0.1785714   0.4642857), wk =   0.0174927
        k(   55) = (   0.1785714   0.2500000   0.2500000), wk =   0.0174927
        k(   56) = (   0.1785714   0.2500000   0.3214286), wk =   0.0349854
        k(   57) = (   0.1785714   0.2500000   0.3928571), wk =   0.0349854
        k(   58) = (   0.1785714   0.2500000   0.4642857), wk =   0.0349854
        k(   59) = (   0.1785714   0.3214286   0.3214286), wk =   0.0174927
        k(   60) = (   0.1785714   0.3214286   0.3928571), wk =   0.0349854
        k(   61) = (   0.1785714   0.3214286   0.4642857), wk =   0.0349854
        k(   62) = (   0.1785714   0.3928571   0.3928571), wk =   0.0174927
        k(   63) = (   0.1785714   0.3928571   0.4642857), wk =   0.0349854
        k(   64) = (   0.1785714   0.4642857   0.4642857), wk =   0.0174927
        k(   65) = (   0.2500000   0.2500000   0.2500000), wk =   0.0058309
        k(   66) = (   0.2500000   0.2500000   0.3214286), wk =   0.0174927
        k(   67) = (   0.2500000   0.2500000   0.3928571), wk =   0.0174927
        k(   68) = (   0.2500000   0.2500000   0.4642857), wk =   0.0174927
        k(   69) = (   0.2500000   0.3214286   0.3214286), wk =   0.0174927
        k(   70) = (   0.2500000   0.3214286   0.3928571), wk =   0.0349854
        k(   71) = (   0.2500000   0.3214286   0.4642857), wk =   0.0349854
        k(   72) = (   0.2500000   0.3928571   0.3928571), wk =   0.0174927
        k(   73) = (   0.2500000   0.3928571   0.4642857), wk =   0.0349854
        k(   74) = (   0.2500000   0.4642857   0.4642857), wk =   0.0174927
        k(   75) = (   0.3214286   0.3214286   0.3214286), wk =   0.0058309
        k(   76) = (   0.3214286   0.3214286   0.3928571), wk =   0.0174927
        k(   77) = (   0.3214286   0.3214286   0.4642857), wk =   0.0174927
        k(   78) = (   0.3214286   0.3928571   0.3928571), wk =   0.0174927
        k(   79) = (   0.3214286   0.3928571   0.4642857), wk =   0.0349854
        k(   80) = (   0.3214286   0.4642857   0.4642857), wk =   0.0174927
        k(   81) = (   0.3928571   0.3928571   0.3928571), wk =   0.0058309
        k(   82) = (   0.3928571   0.3928571   0.4642857), wk =   0.0174927
        k(   83) = (   0.3928571   0.4642857   0.4642857), wk =   0.0174927
        k(   84) = (   0.4642857   0.4642857   0.4642857), wk =   0.0058309

                       cryst. coord.
        k(    1) = (   0.0357143   0.0357143   0.0357143), wk =   0.0058309
        k(    2) = (   0.0357143   0.0357143   0.1071429), wk =   0.0174927
        k(    3) = (   0.0357143   0.0357143   0.1785714), wk =   0.0174927
        k(    4) = (   0.0357143   0.0357143   0.2500000), wk =   0.0174927
        k(    5) = (   0.0357143   0.0357143   0.3214286), wk =   0.0174927
        k(    6) = (   0.0357143   0.0357143   0.3928571), wk =   0.0174927
        k(    7) = (   0.0357143   0.0357143   0.4642857), wk =   0.0174927
        k(    8) = (   0.0357143   0.1071429   0.1071429), wk =   0.0174927
        k(    9) = (   0.0357143   0.1071429   0.1785714), wk =   0.0349854
        k(   10) = (   0.0357143   0.1071429   0.2500000), wk =   0.0349854
        k(   11) = (   0.0357143   0.1071429   0.3214286), wk =   0.0349854
        k(   12) = (   0.0357143   0.1071429   0.3928571), wk =   0.0349854
        k(   13) = (   0.0357143   0.1071429   0.4642857), wk =   0.0349854
        k(   14) = (   0.0357143   0.1785714   0.1785714), wk =   0.0174927
        k(   15) = (   0.0357143   0.1785714   0.2500000), wk =   0.0349854
        k(   16) = (   0.0357143   0.1785714   0.3214286), wk =   0.0349854
        k(   17) = (   0.0357143   0.1785714   0.3928571), wk =   0.0349854
        k(   18) = (   0.0357143   0.1785714   0.4642857), wk =   0.0349854
        k(   19) = (   0.0357143   0.2500000   0.2500000), wk =   0.0174927
        k(   20) = (   0.0357143   0.2500000   0.3214286), wk =   0.0349854
        k(   21) = (   0.0357143   0.2500000   0.3928571), wk =   0.0349854
        k(   22) = (   0.0357143   0.2500000   0.4642857), wk =   0.0349854
        k(   23) = (   0.0357143   0.3214286   0.3214286), wk =   0.0174927
        k(   24) = (   0.0357143   0.3214286   0.3928571), wk =   0.0349854
        k(   25) = (   0.0357143   0.3214286   0.4642857), wk =   0.0349854
        k(   26) = (   0.0357143   0.3928571   0.3928571), wk =   0.0174927
        k(   27) = (   0.0357143   0.3928571   0.4642857), wk =   0.0349854
        k(   28) = (   0.0357143   0.4642857   0.4642857), wk =   0.0174927
        k(   29) = (   0.1071429   0.1071429   0.1071429), wk =   0.0058309
        k(   30) = (   0.1071429   0.1071429   0.1785714), wk =   0.0174927
        k(   31) = (   0.1071429   0.1071429   0.2500000), wk =   0.0174927
        k(   32) = (   0.1071429   0.1071429   0.3214286), wk =   0.0174927
        k(   33) = (   0.1071429   0.1071429   0.3928571), wk =   0.0174927
        k(   34) = (   0.1071429   0.1071429   0.4642857), wk =   0.0174927
        k(   35) = (   0.1071429   0.1785714   0.1785714), wk =   0.0174927
        k(   36) = (   0.1071429   0.1785714   0.2500000), wk =   0.0349854
        k(   37) = (   0.1071429   0.1785714   0.3214286), wk =   0.0349854
        k(   38) = (   0.1071429   0.1785714   0.3928571), wk =   0.0349854
        k(   39) = (   0.1071429   0.1785714   0.4642857), wk =   0.0349854
        k(   40) = (   0.1071429   0.2500000   0.2500000), wk =   0.0174927
        k(   41) = (   0.1071429   0.2500000   0.3214286), wk =   0.0349854
        k(   42) = (   0.1071429   0.2500000   0.3928571), wk =   0.0349854
        k(   43) = (   0.1071429   0.2500000   0.4642857), wk =   0.0349854
        k(   44) = (   0.1071429   0.3214286   0.3214286), wk =   0.0174927
        k(   45) = (   0.1071429   0.3214286   0.3928571), wk =   0.0349854
        k(   46) = (   0.1071429   0.3214286   0.4642857), wk =   0.0349854
        k(   47) = (   0.1071429   0.3928571   0.3928571), wk =   0.0174927
        k(   48) = (   0.1071429   0.3928571   0.4642857), wk =   0.0349854
        k(   49) = (   0.1071429   0.4642857   0.4642857), wk =   0.0174927
        k(   50) = (   0.1785714   0.1785714   0.1785714), wk =   0.0058309
        k(   51) = (   0.1785714   0.1785714   0.2500000), wk =   0.0174927
        k(   52) = (   0.1785714   0.1785714   0.3214286), wk =   0.0174927
        k(   53) = (   0.1785714   0.1785714   0.3928571), wk =   0.0174927
        k(   54) = (   0.1785714   0.1785714   0.4642857), wk =   0.0174927
        k(   55) = (   0.1785714   0.2500000   0.2500000), wk =   0.0174927
        k(   56) = (   0.1785714   0.2500000   0.3214286), wk =   0.0349854
        k(   57) = (   0.1785714   0.2500000   0.3928571), wk =   0.0349854
        k(   58) = (   0.1785714   0.2500000   0.4642857), wk =   0.0349854
        k(   59) = (   0.1785714   0.3214286   0.3214286), wk =   0.0174927
        k(   60) = (   0.1785714   0.3214286   0.3928571), wk =   0.0349854
        k(   61) = (   0.1785714   0.3214286   0.4642857), wk =   0.0349854
        k(   62) = (   0.1785714   0.3928571   0.3928571), wk =   0.0174927
        k(   63) = (   0.1785714   0.3928571   0.4642857), wk =   0.0349854
        k(   64) = (   0.1785714   0.4642857   0.4642857), wk =   0.0174927
        k(   65) = (   0.2500000   0.2500000   0.2500000), wk =   0.0058309
        k(   66) = (   0.2500000   0.2500000   0.3214286), wk =   0.0174927
        k(   67) = (   0.2500000   0.2500000   0.3928571), wk =   0.0174927
        k(   68) = (   0.2500000   0.2500000   0.4642857), wk =   0.0174927
        k(   69) = (   0.2500000   0.3214286   0.3214286), wk =   0.0174927
        k(   70) = (   0.2500000   0.3214286   0.3928571), wk =   0.0349854
        k(   71) = (   0.2500000   0.3214286   0.4642857), wk =   0.0349854
        k(   72) = (   0.2500000   0.3928571   0.3928571), wk =   0.0174927
        k(   73) = (   0.2500000   0.3928571   0.4642857), wk =   0.0349854
        k(   74) = (   0.2500000   0.4642857   0.4642857), wk =   0.0174927
        k(   75) = (   0.3214286   0.3214286   0.3214286), wk =   0.0058309
        k(   76) = (   0.3214286   0.3214286   0.3928571), wk =   0.0174927
        k(   77) = (   0.3214286   0.3214286   0.4642857), wk =   0.0174927
        k(   78) = (   0.3214286   0.3928571   0.3928571), wk =   0.0174927
        k(   79) = (   0.3214286   0.3928571   0.4642857), wk =   0.0349854
        k(   80) = (   0.3214286   0.4642857   0.4642857), wk =   0.0174927
        k(   81) = (   0.3928571   0.3928571   0.3928571), wk =   0.0058309
        k(   82) = (   0.3928571   0.3928571   0.4642857), wk =   0.0174927
        k(   83) = (   0.3928571   0.4642857   0.4642857), wk =   0.0174927
        k(   84) = (   0.4642857   0.4642857   0.4642857), wk =   0.0058309

     Dense  grid:    80989 G-vectors     FFT dimensions: (  54,  54,  54)

     Smooth grid:    20377 G-vectors     FFT dimensions: (  36,  36,  36)

     Dynamical RAM for                 wfc:       0.09 MB

     Dynamical RAM for     wfc (w. buffer):       3.86 MB

     Dynamical RAM for           str. fact:       0.37 MB

     Dynamical RAM for           local pot:       0.00 MB

     Dynamical RAM for          nlocal pot:       0.24 MB

     Dynamical RAM for                qrad:       6.42 MB

     Dynamical RAM for          rho,v,vnew:       0.77 MB

     Dynamical RAM for               rhoin:       0.26 MB

     Dynamical RAM for            rho*nmix:       1.98 MB

     Dynamical RAM for           G-vectors:       0.48 MB

     Dynamical RAM for          h,s,v(r/c):       0.10 MB

     Dynamical RAM for          <psi|beta>:       0.02 MB

     Dynamical RAM for                 psi:       0.18 MB

     Dynamical RAM for                hpsi:       0.18 MB

     Dynamical RAM for                spsi:       0.18 MB

     Dynamical RAM for      wfcinit/wfcrot:       0.23 MB

     Dynamical RAM for           addusdens:      12.91 MB

     Dynamical RAM for          addusforce:      13.17 MB

     Dynamical RAM for         addusstress:      13.62 MB

     Estimated static dynamical RAM per process >      13.56 MB

     Estimated max dynamical RAM per process >      29.16 MB

     Estimated total dynamical RAM >     563.49 MB

     Check: negative core charge=   -0.000002

     Initial potential from superposition of free atoms

     starting charge      37.9791, renormalised to      38.0000
     Starting wfcs are   27 randomized atomic wfcs
     Checking if some PAW data can be deallocated... 
       PAW data deallocated on   16 nodes for type:  1
       PAW data deallocated on    8 nodes for type:  3

     total cpu time spent up to now is        3.1 secs

     Self-consistent Calculation

     iteration #  1     ecut=    40.00 Ry     beta= 0.40
     Davidson diagonalization with overlap

---- Real-time Memory Report at c_bands before calling an iterative solver
            60 MiB given to the printing process from OS
             0 MiB allocation reported by mallinfo(arena+hblkhd)
         25447 MiB available memory on the node where the printing process lives
------------------
     ethr =  1.00E-02,  avg # of iterations =  2.8

     total cpu time spent up to now is        5.0 secs

     total energy              =    -628.09736963 Ry
     estimated scf accuracy    <       0.66076631 Ry

     iteration #  2     ecut=    40.00 Ry     beta= 0.40
     Davidson diagonalization with overlap

---- Real-time Memory Report at c_bands before calling an iterative solver
            65 MiB given to the printing process from OS
             0 MiB allocation reported by mallinfo(arena+hblkhd)
         25414 MiB available memory on the node where the printing process lives
------------------
     ethr =  1.74E-03,  avg # of iterations =  4.9

     total cpu time spent up to now is        7.9 secs

     total energy              =    -628.27831573 Ry
     estimated scf accuracy    <       0.05732856 Ry

     iteration #  3     ecut=    40.00 Ry     beta= 0.40
     Davidson diagonalization with overlap

---- Real-time Memory Report at c_bands before calling an iterative solver
            66 MiB given to the printing process from OS
             0 MiB allocation reported by mallinfo(arena+hblkhd)
         25402 MiB available memory on the node where the printing process lives
------------------
     ethr =  1.51E-04,  avg # of iterations = 10.5

     total cpu time spent up to now is       10.2 secs

     total energy              =    -628.28507967 Ry
     estimated scf accuracy    <       0.00911268 Ry

     iteration #  4     ecut=    40.00 Ry     beta= 0.40
     Davidson diagonalization with overlap

---- Real-time Memory Report at c_bands before calling an iterative solver
            66 MiB given to the printing process from OS
             0 MiB allocation reported by mallinfo(arena+hblkhd)
         25422 MiB available memory on the node where the printing process lives
------------------
     ethr =  2.40E-05,  avg # of iterations =  4.5

     total cpu time spent up to now is       13.5 secs

     total energy              =    -628.28640465 Ry
     estimated scf accuracy    <       0.00190758 Ry

     iteration #  5     ecut=    40.00 Ry     beta= 0.40
     Davidson diagonalization with overlap

---- Real-time Memory Report at c_bands before calling an iterative solver
            66 MiB given to the printing process from OS
             0 MiB allocation reported by mallinfo(arena+hblkhd)
         25416 MiB available memory on the node where the printing process lives
------------------
     ethr =  5.02E-06,  avg # of iterations =  5.2

     total cpu time spent up to now is       15.8 secs

     total energy              =    -628.28672713 Ry
     estimated scf accuracy    <       0.00012739 Ry

     iteration #  6     ecut=    40.00 Ry     beta= 0.40
     Davidson diagonalization with overlap

---- Real-time Memory Report at c_bands before calling an iterative solver
            66 MiB given to the printing process from OS
             0 MiB allocation reported by mallinfo(arena+hblkhd)
         25446 MiB available memory on the node where the printing process lives
------------------
     ethr =  3.35E-07,  avg # of iterations =  2.2

     total cpu time spent up to now is       17.4 secs

     total energy              =    -628.28676497 Ry
     estimated scf accuracy    <       0.00001148 Ry

     iteration #  7     ecut=    40.00 Ry     beta= 0.40
     Davidson diagonalization with overlap

---- Real-time Memory Report at c_bands before calling an iterative solver
            66 MiB given to the printing process from OS
             0 MiB allocation reported by mallinfo(arena+hblkhd)
         25436 MiB available memory on the node where the printing process lives
------------------
     ethr =  3.02E-08,  avg # of iterations =  3.8

     total cpu time spent up to now is       19.4 secs

     total energy              =    -628.28675304 Ry
     estimated scf accuracy    <       0.00002847 Ry

     iteration #  8     ecut=    40.00 Ry     beta= 0.40
     Davidson diagonalization with overlap

---- Real-time Memory Report at c_bands before calling an iterative solver
            66 MiB given to the printing process from OS
             0 MiB allocation reported by mallinfo(arena+hblkhd)
         25440 MiB available memory on the node where the printing process lives
------------------
     ethr =  3.02E-08,  avg # of iterations =  4.1

     total cpu time spent up to now is       21.5 secs

     total energy              =    -628.28676361 Ry
     estimated scf accuracy    <       0.00001823 Ry

     iteration #  9     ecut=    40.00 Ry     beta= 0.40
     Davidson diagonalization with overlap

---- Real-time Memory Report at c_bands before calling an iterative solver
            66 MiB given to the printing process from OS
             0 MiB allocation reported by mallinfo(arena+hblkhd)
         25442 MiB available memory on the node where the printing process lives
------------------
     ethr =  3.02E-08,  avg # of iterations =  2.0

     total cpu time spent up to now is       23.8 secs

     total energy              =    -628.28676495 Ry
     estimated scf accuracy    <       0.00000217 Ry

     iteration # 10     ecut=    40.00 Ry     beta= 0.40
     Davidson diagonalization with overlap

---- Real-time Memory Report at c_bands before calling an iterative solver
            66 MiB given to the printing process from OS
             0 MiB allocation reported by mallinfo(arena+hblkhd)
         25451 MiB available memory on the node where the printing process lives
------------------
     ethr =  5.71E-09,  avg # of iterations =  2.0

     total cpu time spent up to now is       25.2 secs

     total energy              =    -628.28676481 Ry
     estimated scf accuracy    <       0.00000073 Ry

     iteration # 11     ecut=    40.00 Ry     beta= 0.40
     Davidson diagonalization with overlap

---- Real-time Memory Report at c_bands before calling an iterative solver
            66 MiB given to the printing process from OS
             0 MiB allocation reported by mallinfo(arena+hblkhd)
         25455 MiB available memory on the node where the printing process lives
------------------
     ethr =  1.91E-09,  avg # of iterations =  3.1

     total cpu time spent up to now is       27.4 secs

     End of self-consistent calculation

          k = 0.0357 0.0357 0.0357 (  2541 PWs)   bands (ev):

   -30.3725 -20.0266 -11.7317 -11.7310 -11.7310  -9.9148  -9.5922  -9.5922
    -5.0733  -5.0733  -5.0668   4.5300   4.5654   4.5654   5.0358   5.0358
     5.0725   5.7216   5.7473   5.7473  10.3194  10.3194  10.6367

     occupation numbers 
     1.0000   1.0000   1.0000   1.0000   1.0000   1.0000   1.0000   1.0000
     1.0000   1.0000   1.0000   1.0001   1.0002   1.0002   1.0681   1.0681
     1.0782   0.0554   0.0406   0.0406   0.0000   0.0000   0.0000

          k = 0.0357 0.0357 0.1071 (  2555 PWs)   bands (ev):

   -30.3721 -20.0250 -11.8211 -11.7309 -11.7302  -9.8858  -9.5911  -9.5058
    -5.0742  -5.0703  -5.0572   4.4645   4.5539   4.5642   4.9587   4.9986
     5.0610   5.5722   5.7226   5.7305  10.4341  10.4463  10.8252

     occupation numbers 
     1.0000   1.0000   1.0000   1.0000   1.0000   1.0000   1.0000   1.0000
     1.0000   1.0000   1.0000   1.0000   1.0001   1.0002   1.0421   1.0556
     1.0754   0.2402   0.0547   0.0498   0.0000   0.0000   0.0000

          k = 0.0357 0.0357 0.1786 (  2573 PWs)   bands (ev):

   -30.3714 -20.0220 -11.9620 -11.7298 -11.7289  -9.8742  -9.5889  -9.3290
    -5.0704  -5.0650  -5.0453   4.3662   4.5309   4.5415   4.8550   4.9342
     5.0145   5.3057   5.6928   5.7020  10.6430  10.6695  11.1929

     occupation numbers 
     1.0000   1.0000   1.0000   1.0000   1.0000   1.0000   1.0000   1.0000
     1.0000   1.0000   1.0000   1.0000   1.0001   1.0001   1.0157   1.0344
     1.0611   0.9035   0.0767   0.0693   0.0000   0.0000   0.0000

          k = 0.0357 0.0357 0.2500 (  2562 PWs)   bands (ev):

   -30.3705 -20.0184 -12.1121 -11.7284 -11.7271  -9.8841  -9.5862  -9.1074
    -5.0628  -5.0584  -5.0333   4.2557   4.4962   4.5003   4.7470   4.8428
     4.9528   5.0170   5.6582   5.6677  10.9094  10.9485  11.7155

     occupation numbers 
     1.0000   1.0000   1.0000   1.0000   1.0000   1.0000   1.0000   1.0000
     1.0000   1.0000   1.0000   1.0000   1.0000   1.0000   1.0039   1.0137
     1.0402   1.0619   0.1105   0.1003   0.0000   0.0000   0.0000

          k = 0.0357 0.0357 0.3214 (  2575 PWs)   bands (ev):

   -30.3696 -20.0147 -12.2428 -11.7270 -11.7254  -9.9022  -9.5835  -8.8943
    -5.0532  -5.0517  -5.0233   4.1471   4.4466   4.4547   4.6405   4.6500
     4.8711   4.8934   5.6246   5.6342  11.1841  11.2366  12.1652

     occupation numbers 
     1.0000   1.0000   1.0000   1.0000   1.0000   1.0000   1.0000   1.0000
     1.0000   1.0000   1.0000   1.0000   1.0000   1.0000   1.0007   1.0008
     1.0187   1.0236   0.1530   0.1398   0.0000   0.0000   0.0000

          k = 0.0357 0.0357 0.3929 (  2573 PWs)   bands (ev):

   -30.3689 -20.0117 -12.3373 -11.7259 -11.7240  -9.9191  -9.5814  -8.7292
    -5.0464  -5.0441  -5.0166   4.0589   4.3872   4.4158   4.4410   4.5792
     4.8251   4.8508   5.5981   5.6094  11.4130  11.4794  12.3969

     occupation numbers 
     1.0000   1.0000   1.0000   1.0000   1.0000   1.0000   1.0000   1.0000
     1.0000   1.0000   1.0000   1.0000   1.0000   1.0000   1.0000   1.0002
     1.0111   1.0150   0.1939   0.1756   0.0000   0.0000   0.0000

          k = 0.0357 0.0357 0.4643 (  2569 PWs)   bands (ev):

   -30.3685 -20.0101 -12.3866 -11.7253 -11.7232  -9.9289  -9.5802  -8.6393
    -5.0434  -5.0385  -5.0135   4.0063   4.3043   4.3810   4.3925   4.5425
     4.8067   4.8291   5.5840   5.5960  11.5446  11.6204  12.6102

     occupation numbers 
     1.0000   1.0000   1.0000   1.0000   1.0000   1.0000   1.0000   1.0000
     1.0000   1.0000   1.0000   1.0000   1.0000   1.0000   1.0000   1.0001
     1.0088   1.0116   0.2182   0.1973   0.0000   0.0000   0.0000

          k = 0.0357 0.1071 0.1071 (  2562 PWs)   bands (ev):

   -30.3717 -20.0233 -11.8222 -11.8194 -11.7299  -9.8459  -9.5380  -9.4805
    -5.0809  -5.0686  -5.0436   4.3795   4.5469   4.5840   4.8651   4.9530
     5.0877   5.4977   5.6400   5.7105  10.5361  10.5732  10.9832

     occupation numbers 
     1.0000   1.0000   1.0000   1.0000   1.0000   1.0000   1.0000   1.0000
     1.0000   1.0000   1.0000   1.0000   1.0001   1.0003   1.0175   1.0402
     1.0810   0.4075   0.1322   0.0630   0.0000   0.0000   0.0000

          k = 0.0357 0.1071 0.1786 (  2570 PWs)   bands (ev):

   -30.3710 -20.0204 -11.9622 -11.8202 -11.7286  -9.8240  -9.5193  -9.3277
    -5.0835  -5.0635  -5.0305   4.2709   4.5258   4.5784   4.7422   4.8893
     5.0771   5.2803   5.5899   5.6794  10.7229  10.8029  11.2944

     occupation numbers 
     1.0000   1.0000   1.0000   1.0000   1.0000   1.0000   1.0000   1.0000
     1.0000   1.0000   1.0000   1.0000   1.0001   1.0002   1.0036   1.0226
     1.0791   0.9521   0.2078   0.0887   0.0000   0.0000   0.0000

          k = 0.0357 0.1071 0.2500 (  2570 PWs)   bands (ev):

   -30.3701 -20.0167 -12.1127 -11.8196 -11.7270  -9.8272  -9.5161  -9.1102
    -5.0804  -5.0569  -5.0209   4.1615   4.4927   4.5396   4.6117   4.7990
     4.9802   5.1002   5.5520   5.6421  10.9717  11.0863  11.7408

     occupation numbers 
     1.0000   1.0000   1.0000   1.0000   1.0000   1.0000   1.0000   1.0000
     1.0000   1.0000   1.0000   1.0000   1.0000   1.0001   1.0004   1.0080
     1.0493   1.0826   0.2808   0.1296   0.0000   0.0000   0.0000

          k = 0.0357 0.1071 0.3214 (  2569 PWs)   bands (ev):

   -30.3692 -20.0130 -12.2437 -11.8189 -11.7255  -9.8404  -9.5142  -8.8981
    -5.0723  -5.0499  -5.0165   4.0683   4.4382   4.4523   4.4942   4.6598
     4.8585   5.0599   5.5154   5.6070  11.2396  11.3743  12.2137

     occupation numbers 
     1.0000   1.0000   1.0000   1.0000   1.0000   1.0000   1.0000   1.0000
     1.0000   1.0000   1.0000   1.0000   1.0000   1.0000   1.0000   1.0010
     1.0163   1.0751   0.3636   0.1794   0.0000   0.0000   0.0000

          k = 0.0357 0.1071 0.3929 (  2568 PWs)   bands (ev):

   -30.3685 -20.0101 -12.3384 -11.8184 -11.7242  -9.8537  -9.5127  -8.7334
    -5.0622  -5.0429  -5.0180   4.0056   4.2590   4.4044   4.4455   4.5584
     4.8097   5.0425   5.4850   5.5797  11.4706  11.6155  12.4447

     occupation numbers 
     1.0000   1.0000   1.0000   1.0000   1.0000   1.0000   1.0000   1.0000
     1.0000   1.0000   1.0000   1.0000   1.0000   1.0000   1.0000   1.0002
     1.0091   1.0702   0.4400   0.2261   0.0000   0.0000   0.0000

          k = 0.0357 0.1071 0.4643 (  2570 PWs)   bands (ev):

   -30.3682 -20.0085 -12.3878 -11.8182 -11.7235  -9.8617  -9.5119  -8.6437
    -5.0551  -5.0354  -5.0239   3.9810   4.1346   4.3769   4.4212   4.5116
     4.7895   5.0357   5.4667   5.5649  11.6065  11.7560  12.6482

     occupation numbers 
     1.0000   1.0000   1.0000   1.0000   1.0000   1.0000   1.0000   1.0000
     1.0000   1.0000   1.0000   1.0000   1.0000   1.0000   1.0000   1.0001
     1.0070   1.0681   0.4885   0.2545   0.0000   0.0000   0.0000

          k = 0.0357 0.1786 0.1786 (  2574 PWs)   bands (ev):

   -30.3703 -20.0175 -11.9646 -11.9605 -11.7274  -9.7896  -9.3867  -9.2968
    -5.0942  -5.0585  -5.0191   4.1505   4.5077   4.5935   4.6065   4.8278
     5.1125   5.1636   5.4795   5.6442  10.8738  11.0512  11.5046

     occupation numbers 
     1.0000   1.0000   1.0000   1.0000   1.0000   1.0000   1.0000   1.0000
     1.0000   1.0000   1.0000   1.0000   1.0001   1.0003   1.0004   1.0114
     1.0833   1.0745   0.4544   0.1269   0.0000   0.0000   0.0000

          k = 0.0357 0.1786 0.2500 (  2571 PWs)   bands (ev):

   -30.3694 -20.0138 -12.1138 -11.9630 -11.7258  -9.7818  -9.3551  -9.1134
    -5.0982  -5.0523  -5.0142   4.0324   4.4524   4.4922   4.5672   4.7489
     4.9637   5.1394   5.4259   5.6026  11.0890  11.3543  11.8252

     occupation numbers 
     1.0000   1.0000   1.0000   1.0000   1.0000   1.0000   1.0000   1.0000
     1.0000   1.0000   1.0000   1.0000   1.0000   1.0000   1.0002   1.0040
     1.0437   1.0813   0.6006   0.1864   0.0000   0.0000   0.0000

          k = 0.0357 0.1786 0.3214 (  2575 PWs)   bands (ev):

   -30.3686 -20.0101 -12.2453 -11.9635 -11.7243  -9.7852  -9.3545  -8.9048
    -5.0949  -5.0467  -5.0159   3.9360   4.2951   4.4407   4.5135   4.6511
     4.8382   5.1597   5.3832   5.5628  11.3387  11.6486  12.2018

     occupation numbers 
     1.0000   1.0000   1.0000   1.0000   1.0000   1.0000   1.0000   1.0000
     1.0000   1.0000   1.0000   1.0000   1.0000   1.0000   1.0001   1.0009
     1.0129   1.0760   0.7175   0.2587   0.0000   0.0000   0.0000

          k = 0.0357 0.1786 0.3929 (  2575 PWs)   bands (ev):

   -30.3679 -20.0071 -12.3404 -11.9639 -11.7231  -9.7911  -9.3557  -8.7409
    -5.0856  -5.0442  -5.0218   3.8785   4.1112   4.3974   4.4713   4.5748
     4.7860   5.1898   5.3349   5.5319  11.5699  11.8904  12.4828

     occupation numbers 
     1.0000   1.0000   1.0000   1.0000   1.0000   1.0000   1.0000   1.0000
     1.0000   1.0000   1.0000   1.0000   1.0000   1.0000   1.0000   1.0002
     1.0067   1.0608   0.8395   0.3249   0.0000   0.0000   0.0000

          k = 0.0357 0.1786 0.4643 (  2569 PWs)   bands (ev):

   -30.3675 -20.0055 -12.3899 -11.9642 -11.7224  -9.7951  -9.3564  -8.6516
    -5.0747  -5.0478  -5.0259   3.8730   3.9723   4.3738   4.4533   4.5342
     4.7643   5.2304   5.2848   5.5149  11.7134  12.0351  12.6479

     occupation numbers 
     1.0000   1.0000   1.0000   1.0000   1.0000   1.0000   1.0000   1.0000
     1.0000   1.0000   1.0000   1.0000   1.0000   1.0000   1.0000   1.0001
     1.0050   1.0244   0.9440   0.3648   0.0000   0.0000   0.0000

          k = 0.0357 0.2500 0.2500 (  2579 PWs)   bands (ev):

   -30.3686 -20.0101 -12.1168 -12.1135 -11.7243  -9.7632  -9.1680  -9.0902
    -5.1101  -5.0479  -5.0146   3.8977   4.3199   4.4673   4.5542   4.6828
     4.8877   5.1047   5.3994   5.5551  11.2630  11.7029  11.9801

     occupation numbers 
     1.0000   1.0000   1.0000   1.0000   1.0000   1.0000   1.0000   1.0000
     1.0000   1.0000   1.0000   1.0000   1.0000   1.0000   1.0001   1.0015
     1.0223   1.0829   0.6737   0.2744   0.0000   0.0000   0.0000

          k = 0.0357 0.2500 0.3214 (  2579 PWs)   bands (ev):

   -30.3677 -20.0064 -12.2474 -12.1166 -11.7228  -9.7568  -9.1407  -8.9123
    -5.1138  -5.0483  -5.0183   3.7809   4.1732   4.4323   4.5094   4.6044
     4.8163   5.0887   5.4111   5.5093  11.4796  12.0216  12.2001

     occupation numbers 
     1.0000   1.0000   1.0000   1.0000   1.0000   1.0000   1.0000   1.0000
     1.0000   1.0000   1.0000   1.0000   1.0000   1.0000   1.0001   1.0004
     1.0099   1.0812   0.6414   0.3785   0.0000   0.0000   0.0000

          k = 0.0357 0.2500 0.3929 (  2574 PWs)   bands (ev):

   -30.3670 -20.0034 -12.3429 -12.1178 -11.7216  -9.7552  -9.1431  -8.7504
    -5.1088  -5.0586  -5.0190   3.7005   4.0186   4.3924   4.4725   4.5446
     4.7943   5.0827   5.4179   5.4741  11.7008  12.2297  12.3917

     occupation numbers 
     1.0000   1.0000   1.0000   1.0000   1.0000   1.0000   1.0000   1.0000
     1.0000   1.0000   1.0000   1.0000   1.0000   1.0000   1.0000   1.0001
     1.0075   1.0802   0.6227   0.4688   0.0000   0.0000   0.0000

          k = 0.0357 0.2500 0.4643 (  2564 PWs)   bands (ev):

   -30.3666 -20.0018 -12.3927 -12.1185 -11.7209  -9.7550  -9.1451  -8.6614
    -5.0979  -5.0739  -5.0180   3.6638   3.9141   4.3706   4.4548   4.5172
     4.7890   5.0800   5.4196   5.4550  11.8563  12.3483  12.4556

     occupation numbers 
     1.0000   1.0000   1.0000   1.0000   1.0000   1.0000   1.0000   1.0000
     1.0000   1.0000   1.0000   1.0000   1.0000   1.0000   1.0000   1.0001
     1.0070   1.0797   0.6180   0.5203   0.0000   0.0000   0.0000

          k = 0.0357 0.3214 0.3214 (  2576 PWs)   bands (ev):

   -30.3668 -20.0027 -12.2504 -12.2486 -11.7213  -9.7422  -8.9495  -8.9011
    -5.1251  -5.0613  -5.0165   3.6401   4.0545   4.4174   4.4588   4.5416
     4.7997   5.0323   5.4577   5.4789  11.6510  12.1963  12.4268

     occupation numbers 
     1.0000   1.0000   1.0000   1.0000   1.0000   1.0000   1.0000   1.0000
     1.0000   1.0000   1.0000   1.0000   1.0000   1.0000   1.0000   1.0001
     1.0081   1.0670   0.5130   0.4562   0.0000   0.0000   0.0000

          k = 0.0357 0.3214 0.3929 (  2572 PWs)   bands (ev):

   -30.3661 -19.9997 -12.3455 -12.2512 -11.7201  -9.7342  -8.9336  -8.7595
    -5.1269  -5.0813  -5.0124   3.5382   3.9311   4.3852   4.4189   4.4865
     4.8219   5.0057   5.4177   5.5241  11.8330  12.1941  12.6434

     occupation numbers 
     1.0000   1.0000   1.0000   1.0000   1.0000   1.0000   1.0000   1.0000
     1.0000   1.0000   1.0000   1.0000   1.0000   1.0000   1.0000   1.0000
     1.0106   1.0581   0.6232   0.3429   0.0000   0.0000   0.0000

          k = 0.0357 0.3214 0.4643 (  2575 PWs)   bands (ev):

   -30.3658 -19.9980 -12.3954 -12.2522 -11.7195  -9.7306  -8.9361  -8.6713
    -5.1197  -5.1009  -5.0096   3.4861   3.8477   4.3602   4.4019   4.4610
     4.8525   4.9838   5.3961   5.5451  11.9967  12.1367  12.7684

     occupation numbers 
     1.0000   1.0000   1.0000   1.0000   1.0000   1.0000   1.0000   1.0000
     1.0000   1.0000   1.0000   1.0000   1.0000   1.0000   1.0000   1.0000
     1.0153   1.0505   0.6827   0.2956   0.0000   0.0000   0.0000

          k = 0.0357 0.3929 0.3929 (  2569 PWs)   bands (ev):

   -30.3655 -19.9967 -12.3479 -12.3472 -11.7190  -9.7216  -8.7784  -8.7587
    -5.1363  -5.1047  -5.0063   3.4213   3.8368   4.3431   4.3846   4.4330
     4.8669   4.9866   5.3740   5.5938  11.9096  12.1590  12.7574

     occupation numbers 
     1.0000   1.0000   1.0000   1.0000   1.0000   1.0000   1.0000   1.0000
     1.0000   1.0000   1.0000   1.0000   1.0000   1.0000   1.0000   1.0000
     1.0179   1.0515   0.7419   0.2011   0.0000   0.0000   0.0000

          k = 0.0357 0.3929 0.4643 (  2570 PWs)   bands (ev):

   -30.3651 -19.9950 -12.3977 -12.3487 -11.7183  -9.7154  -8.7729  -8.6793
    -5.1355  -5.1237  -5.0029   3.3612   3.7717   4.3069   4.3742   4.4066
     4.9143   4.9687   5.3497   5.6269  11.9175  12.1821  12.8400

     occupation numbers 
     1.0000   1.0000   1.0000   1.0000   1.0000   1.0000   1.0000   1.0000
     1.0000   1.0000   1.0000   1.0000   1.0000   1.0000   1.0000   1.0000
     1.0288   1.0454   0.8039   0.1497   0.0000   0.0000   0.0000

          k = 0.0357 0.4643 0.4643 (  2562 PWs)   bands (ev):

   -30.3647 -19.9934 -12.3990 -12.3989 -11.7177  -9.7078  -8.6850  -8.6827
    -5.1422  -5.1381  -4.9991   3.2968   3.7166   4.2661   4.3699   4.3757
     4.9552   4.9710   5.3243   5.6673  11.8295  12.2628  12.8759

     occupation numbers 
     1.0000   1.0000   1.0000   1.0000   1.0000   1.0000   1.0000   1.0000
     1.0000   1.0000   1.0000   1.0000   1.0000   1.0000   1.0000   1.0000
     1.0409   1.0461   0.8636   0.1007   0.0000   0.0000   0.0000

          k = 0.1071 0.1071 0.1071 (  2575 PWs)   bands (ev):

   -30.3713 -20.0217 -11.8243 -11.8184 -11.8184  -9.7864  -9.4791  -9.4791
    -5.0798  -5.0798  -5.0281   4.2923   4.5743   4.5743   4.8402   4.8402
     5.1312   5.4251   5.6261   5.6261  10.6581  10.6581  11.1200

     occupation numbers 
     1.0000   1.0000   1.0000   1.0000   1.0000   1.0000   1.0000   1.0000
     1.0000   1.0000   1.0000   1.0000   1.0002   1.0002   1.0132   1.0132
     1.0825   0.6027   0.1509   0.1509   0.0000   0.0000   0.0000

          k = 0.1071 0.1071 0.1786 (  2577 PWs)   bands (ev):

   -30.3706 -20.0188 -11.9623 -11.8226 -11.8168  -9.7466  -9.4766  -9.3256
    -5.0861  -5.0778  -5.0140   4.1821   4.5550   4.5727   4.7111   4.7907
     5.1426   5.2364   5.5563   5.5999  10.8246  10.8821  11.3856

     occupation numbers 
     1.0000   1.0000   1.0000   1.0000   1.0000   1.0000   1.0000   1.0000
     1.0000   1.0000   1.0000   1.0000   1.0001   1.0002   1.0023   1.0072
     1.0807   1.0173   0.2719   0.1908   0.0000   0.0000   0.0000

          k = 0.1071 0.1071 0.2500 (  2572 PWs)   bands (ev):

   -30.3697 -20.0151 -12.1131 -11.8230 -11.8148  -9.7430  -9.4734  -9.1119
    -5.0847  -5.0753  -5.0055   4.0780   4.5220   4.5271   4.5940   4.6777
     5.0468   5.1262   5.5061   5.5670  11.0558  11.1657  11.7648

     occupation numbers 
     1.0000   1.0000   1.0000   1.0000   1.0000   1.0000   1.0000   1.0000
     1.0000   1.0000   1.0000   1.0000   1.0001   1.0001   1.0003   1.0013
     1.0715   1.0829   0.3864   0.2502   0.0000   0.0000   0.0000

          k = 0.1071 0.1071 0.3214 (  2569 PWs)   bands (ev):

   -30.3689 -20.0114 -12.2443 -11.8235 -11.8127  -9.7533  -9.4703  -8.9011
    -5.0758  -5.0728  -5.0045   3.9973   4.4328   4.4614   4.4820   4.5221
     4.9788   5.0974   5.4591   5.5340  11.3151  11.4533  12.1803

     occupation numbers 
     1.0000   1.0000   1.0000   1.0000   1.0000   1.0000   1.0000   1.0000
     1.0000   1.0000   1.0000   1.0000   1.0000   1.0000   1.0000   1.0001
     1.0488   1.0823   0.5093   0.3201   0.0000   0.0000   0.0000

          k = 0.1071 0.1071 0.3929 (  2569 PWs)   bands (ev):

   -30.3682 -20.0085 -12.3392 -11.8239 -11.8111  -9.7652  -9.4678  -8.7367
    -5.0709  -5.0611  -5.0113   3.9530   4.2246   4.3974   4.4009   4.4863
     4.9749   5.0705   5.4177   5.5073  11.5476  11.6912  12.4592

     occupation numbers 
     1.0000   1.0000   1.0000   1.0000   1.0000   1.0000   1.0000   1.0000
     1.0000   1.0000   1.0000   1.0000   1.0000   1.0000   1.0000   1.0000
     1.0475   1.0777   0.6233   0.3833   0.0000   0.0000   0.0000

          k = 0.1071 0.1071 0.4643 (  2563 PWs)   bands (ev):

   -30.3678 -20.0068 -12.3887 -11.8241 -11.8102  -9.7724  -9.4664  -8.6472
    -5.0698  -5.0443  -5.0237   3.9536   4.0750   4.3613   4.3631   4.4675
     4.9820   5.0552   5.3930   5.4928  11.6887  11.8284  12.6766

     occupation numbers 
     1.0000   1.0000   1.0000   1.0000   1.0000   1.0000   1.0000   1.0000
     1.0000   1.0000   1.0000   1.0000   1.0000   1.0000   1.0000   1.0000
     1.0499   1.0739   0.6910   0.4198   0.0000   0.0000   0.0000

          k = 0.1071 0.1786 0.1786 (  2573 PWs)   bands (ev):

   -30.3699 -20.0158 -11.9654 -11.9594 -11.8187  -9.6839  -9.3699  -9.2950
    -5.0964  -5.0808  -5.0010   4.0693   4.5251   4.5727   4.6271   4.7340
     5.1115   5.1826   5.4673   5.5546  10.9768  11.0845  11.5699

     occupation numbers 
     1.0000   1.0000   1.0000   1.0000   1.0000   1.0000   1.0000   1.0000
     1.0000   1.0000   1.0000   1.0000   1.0001   1.0002   1.0006   1.0032
     1.0833   1.0653   0.4870   0.2754   0.0000   0.0000   0.0000

          k = 0.1071 0.1786 0.2500 (  2577 PWs)   bands (ev):

   -30.3690 -20.0122 -12.1139 -11.9625 -11.8175  -9.6673  -9.3428  -9.1133
    -5.1023  -5.0804  -4.9960   3.9642   4.4361   4.5271   4.5610   4.6525
     4.9724   5.1926   5.4077   5.5146  11.1798  11.3673  11.8421

     occupation numbers 
     1.0000   1.0000   1.0000   1.0000   1.0000   1.0000   1.0000   1.0000
     1.0000   1.0000   1.0000   1.0000   1.0000   1.0001   1.0002   1.0009
     1.0466   1.0589   0.6509   0.3655   0.0000   0.0000   0.0000

          k = 0.1071 0.1786 0.3214 (  2577 PWs)   bands (ev):

   -30.3682 -20.0085 -12.2455 -11.9629 -11.8164  -9.6689  -9.3401  -8.9061
    -5.1006  -5.0786  -4.9998   3.8857   4.3024   4.4333   4.4775   4.5589
     4.9461   5.1886   5.3580   5.4767  11.4223  11.6525  12.1560

     occupation numbers 
     1.0000   1.0000   1.0000   1.0000   1.0000   1.0000   1.0000   1.0000
     1.0000   1.0000   1.0000   1.0000   1.0000   1.0000   1.0000   1.0002
     1.0380   1.0616   0.7831   0.4620   0.0000   0.0000   0.0000

          k = 0.1071 0.1786 0.3929 (  2565 PWs)   bands (ev):

   -30.3675 -20.0055 -12.3407 -11.9631 -11.8154  -9.6745  -9.3392  -8.7427
    -5.0949  -5.0736  -5.0108   3.8482   4.1156   4.3554   4.3993   4.5300
     4.9687   5.1881   5.3047   5.4463  11.6557  11.8833  12.4067

     occupation numbers 
     1.0000   1.0000   1.0000   1.0000   1.0000   1.0000   1.0000   1.0000
     1.0000   1.0000   1.0000   1.0000   1.0000   1.0000   1.0000   1.0001
     1.0454   1.0619   0.9057   0.5442   0.0000   0.0000   0.0000

          k = 0.1071 0.1786 0.4643 (  2560 PWs)   bands (ev):

   -30.3671 -20.0039 -12.3903 -11.9633 -11.8149  -9.6785  -9.3388  -8.6535
    -5.0913  -5.0649  -5.0232   3.8620   3.9619   4.3303   4.3507   4.5156
     4.9891   5.2039   5.2547   5.4294  11.8059  12.0178  12.5543

     occupation numbers 
     1.0000   1.0000   1.0000   1.0000   1.0000   1.0000   1.0000   1.0000
     1.0000   1.0000   1.0000   1.0000   1.0000   1.0000   1.0000   1.0001
     1.0523   1.0504   0.9930   0.5910   0.0000   0.0000   0.0000

          k = 0.1071 0.2500 0.2500 (  2573 PWs)   bands (ev):

   -30.3682 -20.0085 -12.1174 -12.1121 -11.8162  -9.6391  -9.1655  -9.0878
    -5.1165  -5.0828  -4.9956   3.8524   4.3106   4.5028   4.5079   4.6400
     4.8596   5.1905   5.3879   5.4680  11.3459  11.6590  11.9790

     occupation numbers 
     1.0000   1.0000   1.0000   1.0000   1.0000   1.0000   1.0000   1.0000
     1.0000   1.0000   1.0000   1.0000   1.0000   1.0000   1.0001   1.0007
     1.0165   1.0604   0.7049   0.4852   0.0000   0.0000   0.0000

          k = 0.1071 0.2500 0.3214 (  2577 PWs)   bands (ev):

   -30.3673 -20.0048 -12.2471 -12.1157 -11.8148  -9.6307  -9.1365  -8.9115
    -5.1222  -5.0854  -5.0033   3.7618   4.1725   4.4189   4.4553   4.5690
     4.8544   5.1582   5.4029   5.4227  11.5556  11.9463  12.1532

     occupation numbers 
     1.0000   1.0000   1.0000   1.0000   1.0000   1.0000   1.0000   1.0000
     1.0000   1.0000   1.0000   1.0000   1.0000   1.0000   1.0000   1.0002
     1.0156   1.0765   0.6641   0.6094   0.0000   0.0000   0.0000

          k = 0.1071 0.2500 0.3929 (  2575 PWs)   bands (ev):

   -30.3666 -20.0019 -12.3426 -12.1166 -11.8137  -9.6287  -9.1370  -8.7502
    -5.1201  -5.0885  -5.0151   3.7064   4.0155   4.3469   4.3939   4.5321
     4.9091   5.1133   5.3851   5.4145  11.7773  12.1539  12.2948

     occupation numbers 
     1.0000   1.0000   1.0000   1.0000   1.0000   1.0000   1.0000   1.0000
     1.0000   1.0000   1.0000   1.0000   1.0000   1.0000   1.0000   1.0001
     1.0274   1.0833   0.7124   0.6321   0.0000   0.0000   0.0000

          k = 0.1071 0.2500 0.4643 (  2569 PWs)   bands (ev):

   -30.3662 -20.0002 -12.3924 -12.1171 -11.8131  -9.6285  -9.1381  -8.6614
    -5.1148  -5.0916  -5.0243   3.6887   3.9013   4.3259   4.3483   4.5182
     4.9729   5.0589   5.3664   5.4171  11.9404  12.2812  12.3369

     occupation numbers 
     1.0000   1.0000   1.0000   1.0000   1.0000   1.0000   1.0000   1.0000
     1.0000   1.0000   1.0000   1.0000   1.0000   1.0000   1.0000   1.0001
     1.0468   1.0748   0.7616   0.6249   0.0000   0.0000   0.0000

          k = 0.1071 0.3214 0.3214 (  2567 PWs)   bands (ev):

   -30.3665 -20.0012 -12.2502 -12.2470 -11.8132  -9.6141  -8.9479  -8.8979
    -5.1356  -5.0949  -5.0118   3.6506   4.0508   4.3880   4.4094   4.5106
     4.8314   5.1248   5.3692   5.4771  11.7157  12.1656  12.2418

     occupation numbers 
     1.0000   1.0000   1.0000   1.0000   1.0000   1.0000   1.0000   1.0000
     1.0000   1.0000   1.0000   1.0000   1.0000   1.0000   1.0000   1.0001
     1.0119   1.0830   0.7543   0.4608   0.0000   0.0000   0.0000

          k = 0.1071 0.3214 0.3929 (  2568 PWs)   bands (ev):

   -30.3658 -19.9982 -12.3445 -12.2499 -11.8119  -9.6058  -8.9299  -8.7575
    -5.1396  -5.1068  -5.0208   3.5722   3.9256   4.3374   4.3702   4.4568
     4.8860   5.0897   5.3262   5.5241  11.8845  12.1750  12.4413

     occupation numbers 
     1.0000   1.0000   1.0000   1.0000   1.0000   1.0000   1.0000   1.0000
     1.0000   1.0000   1.0000   1.0000   1.0000   1.0000   1.0000   1.0000
     1.0219   1.0813   0.8593   0.3430   0.0000   0.0000   0.0000

          k = 0.1071 0.3214 0.4643 (  2563 PWs)   bands (ev):

   -30.3654 -19.9966 -12.3945 -12.2506 -11.8111  -9.6022  -8.9315  -8.6694
    -5.1359  -5.1187  -5.0263   3.5341   3.8391   4.3136   4.3415   4.4361
     4.9607   5.0360   5.3033   5.5462  12.0293  12.1439  12.5600

     occupation numbers 
     1.0000   1.0000   1.0000   1.0000   1.0000   1.0000   1.0000   1.0000
     1.0000   1.0000   1.0000   1.0000   1.0000   1.0000   1.0000   1.0000
     1.0427   1.0681   0.9085   0.2931   0.0000   0.0000   0.0000

          k = 0.1071 0.3929 0.3929 (  2576 PWs)   bands (ev):

   -30.3651 -19.9953 -12.3467 -12.3454 -11.8104  -9.5929  -8.7754  -8.7550
    -5.1502  -5.1257  -5.0257   3.4742   3.8320   4.3272   4.3276   4.3793
     4.9319   5.0828   5.2746   5.5955  11.9047  12.2018  12.5827

     occupation numbers 
     1.0000   1.0000   1.0000   1.0000   1.0000   1.0000   1.0000   1.0000
     1.0000   1.0000   1.0000   1.0000   1.0000   1.0000   1.0000   1.0000
     1.0337   1.0802   0.9619   0.1981   0.0000   0.0000   0.0000

          k = 0.1071 0.3929 0.4643 (  2565 PWs)   bands (ev):

   -30.3647 -19.9936 -12.3962 -12.3470 -11.8096  -9.5868  -8.7687  -8.6759
    -5.1512  -5.1410  -5.0284   3.4243   3.7667   4.2943   4.3230   4.3466
     4.9968   5.0569   5.2452   5.6302  11.8827  12.2633  12.6710

     occupation numbers 
     1.0000   1.0000   1.0000   1.0000   1.0000   1.0000   1.0000   1.0000
     1.0000   1.0000   1.0000   1.0000   1.0000   1.0000   1.0000   1.0000
     1.0550   1.0743   1.0061   0.1451   0.0000   0.0000   0.0000

          k = 0.1071 0.4643 0.4643 (  2559 PWs)   bands (ev):

   -30.3643 -19.9920 -12.3972 -12.3971 -11.8087  -9.5793  -8.6809  -8.6785
    -5.1580  -5.1546  -5.0297   3.3683   3.7138   4.2663   4.3101   4.3155
     5.0445   5.0677   5.2040   5.6715  11.7917  12.3578  12.7099

     occupation numbers 
     1.0000   1.0000   1.0000   1.0000   1.0000   1.0000   1.0000   1.0000
     1.0000   1.0000   1.0000   1.0000   1.0000   1.0000   1.0000   1.0000
     1.0708   1.0771   1.0503   0.0964   0.0000   0.0000   0.0000

          k = 0.1786 0.1786 0.1786 (  2581 PWs)   bands (ev):

   -30.3692 -20.0129 -11.9710 -11.9573 -11.9573  -9.5617  -9.2917  -9.2917
    -5.1004  -5.1004  -4.9888   3.9641   4.5060   4.5060   4.6588   4.6588
     4.9832   5.2408   5.4462   5.4462  11.1762  11.1762  11.7009

     occupation numbers 
     1.0000   1.0000   1.0000   1.0000   1.0000   1.0000   1.0000   1.0000
     1.0000   1.0000   1.0000   1.0000   1.0001   1.0001   1.0010   1.0010
     1.0503   1.0119   0.5444   0.5444   0.0000   0.0000   0.0000

          k = 0.1786 0.1786 0.2500 (  2576 PWs)   bands (ev):

   -30.3684 -20.0093 -12.1141 -11.9678 -11.9548  -9.5164  -9.2876  -9.1115
    -5.1112  -5.1054  -4.9870   3.8715   4.4055   4.4522   4.5891   4.6258
     4.8759   5.2687   5.3714   5.4201  11.3404  11.4425  11.8932

     occupation numbers 
     1.0000   1.0000   1.0000   1.0000   1.0000   1.0000   1.0000   1.0000
     1.0000   1.0000   1.0000   1.0000   1.0000   1.0000   1.0003   1.0005
     1.0197   0.9715   0.7487   0.6167   0.0000   0.0000   0.0000

          k = 0.1786 0.1786 0.3214 (  2573 PWs)   bands (ev):

   -30.3675 -20.0056 -12.2459 -11.9696 -11.9523  -9.5113  -9.2835  -8.9083
    -5.1114  -5.1105  -4.9958   3.8088   4.3150   4.3227   4.4218   4.6061
     4.9067   5.2755   5.3095   5.3898  11.5633  11.7119  12.1183

     occupation numbers 
     1.0000   1.0000   1.0000   1.0000   1.0000   1.0000   1.0000   1.0000
     1.0000   1.0000   1.0000   1.0000   1.0000   1.0000   1.0000   1.0004
     1.0268   0.9603   0.8958   0.6997   0.0000   0.0000   0.0000

          k = 0.1786 0.1786 0.3929 (  2562 PWs)   bands (ev):

   -30.3668 -20.0027 -12.3413 -11.9710 -11.9502  -9.5151  -9.2802  -8.7459
    -5.1146  -5.1021  -5.0122   3.7873   4.1001   4.2512   4.3542   4.5911
     4.9780   5.2430   5.2757   5.3611  11.8018  11.9196  12.3101

     occupation numbers 
     1.0000   1.0000   1.0000   1.0000   1.0000   1.0000   1.0000   1.0000
     1.0000   1.0000   1.0000   1.0000   1.0000   1.0000   1.0000   1.0003
     1.0485   1.0090   0.9599   0.7753   0.0000   0.0000   0.0000

          k = 0.1786 0.1786 0.4643 (  2564 PWs)   bands (ev):

   -30.3664 -20.0010 -12.3910 -11.9718 -11.9491  -9.5185  -9.2783  -8.6570
    -5.1169  -5.0900  -5.0283   3.8137   3.9331   4.2186   4.3197   4.5824
     5.0499   5.1762   5.2762   5.3413  11.9751  12.0320  12.4184

     occupation numbers 
     1.0000   1.0000   1.0000   1.0000   1.0000   1.0000   1.0000   1.0000
     1.0000   1.0000   1.0000   1.0000   1.0000   1.0000   1.0000   1.0002
     1.0724   1.0688   0.9591   0.8242   0.0000   0.0000   0.0000

          k = 0.1786 0.2500 0.2500 (  2575 PWs)   bands (ev):

   -30.3675 -20.0056 -12.1186 -12.1096 -11.9597  -9.4455  -9.1518  -9.0834
    -5.1279  -5.1165  -4.9903   3.7870   4.3076   4.3996   4.5439   4.6244
     4.7623   5.2873   5.3678   5.3690  11.5028  11.6458  11.9824

     occupation numbers 
     1.0000   1.0000   1.0000   1.0000   1.0000   1.0000   1.0000   1.0000
     1.0000   1.0000   1.0000   1.0000   1.0000   1.0000   1.0001   1.0005
     1.0049   0.9394   0.7580   0.7548   0.0000   0.0000   0.0000

          k = 0.1786 0.2500 0.3214 (  2564 PWs)   bands (ev):

   -30.3666 -20.0020 -12.2465 -12.1143 -11.9585  -9.4295  -9.1240  -8.9099
    -5.1374  -5.1238  -5.0043   3.7286   4.1867   4.3291   4.3930   4.6000
     4.7964   5.2602   5.3287   5.3990  11.6930  11.8855  12.0955

     occupation numbers 
     1.0000   1.0000   1.0000   1.0000   1.0000   1.0000   1.0000   1.0000
     1.0000   1.0000   1.0000   1.0000   1.0000   1.0000   1.0000   1.0003
     1.0077   0.9848   0.8538   0.6748   0.0000   0.0000   0.0000

          k = 0.1786 0.2500 0.3929 (  2566 PWs)   bands (ev):

   -30.3659 -19.9991 -12.3420 -12.1147 -11.9574  -9.4263  -9.1214  -8.7499
    -5.1411  -5.1248  -5.0243   3.7056   4.0211   4.2364   4.3246   4.5908
     4.8603   5.2252   5.2983   5.4147  11.9096  12.0672  12.1990

     occupation numbers 
     1.0000   1.0000   1.0000   1.0000   1.0000   1.0000   1.0000   1.0000
     1.0000   1.0000   1.0000   1.0000   1.0000   1.0000   1.0000   1.0003
     1.0166   1.0302   0.9184   0.6317   0.0000   0.0000   0.0000

          k = 0.1786 0.2500 0.4643 (  2561 PWs)   bands (ev):

   -30.3656 -19.9975 -12.3918 -12.1149 -11.9568  -9.4260  -9.1207  -8.6615
    -5.1434  -5.1194  -5.0409   3.7195   3.8827   4.1990   4.2941   4.5865
     4.9085   5.1929   5.2838   5.4202  12.0689  12.1947  12.2522

     occupation numbers 
     1.0000   1.0000   1.0000   1.0000   1.0000   1.0000   1.0000   1.0000
     1.0000   1.0000   1.0000   1.0000   1.0000   1.0000   1.0000   1.0003
     1.0273   1.0587   0.9458   0.6163   0.0000   0.0000   0.0000

          k = 0.1786 0.3214 0.3214 (  2559 PWs)   bands (ev):

   -30.3658 -19.9984 -12.2498 -12.2441 -11.9568  -9.4050  -8.9441  -8.8922
    -5.1546  -5.1364  -5.0220   3.6629   4.0608   4.3131   4.3363   4.5042
     4.8027   5.2424   5.2888   5.4768  11.8199  12.0906  12.1009

     occupation numbers 
     1.0000   1.0000   1.0000   1.0000   1.0000   1.0000   1.0000   1.0000
     1.0000   1.0000   1.0000   1.0000   1.0000   1.0000   1.0000   1.0001
     1.0084   1.0098   0.9366   0.4617   0.0000   0.0000   0.0000

          k = 0.1786 0.3214 0.3929 (  2559 PWs)   bands (ev):

   -30.3651 -19.9955 -12.3428 -12.2474 -11.9554  -9.3955  -8.9226  -8.7538
    -5.1626  -5.1452  -5.0428   3.6246   3.9250   4.2504   4.2910   4.4659
     4.8553   5.2224   5.2582   5.5263  11.9338  12.1391  12.2533

     occupation numbers 
     1.0000   1.0000   1.0000   1.0000   1.0000   1.0000   1.0000   1.0000
     1.0000   1.0000   1.0000   1.0000   1.0000   1.0000   1.0000   1.0000
     1.0157   1.0331   0.9878   0.3378   0.0000   0.0000   0.0000

          k = 0.1786 0.3214 0.4643 (  2559 PWs)   bands (ev):

   -30.3647 -19.9939 -12.3927 -12.2477 -11.9545  -9.3917  -8.9225  -8.6661
    -5.1654  -5.1484  -5.0577   3.6155   3.8235   4.2135   4.2687   4.4571
     4.8979   5.1980   5.2458   5.5494  11.9909  12.1840  12.4055

     occupation numbers 
     1.0000   1.0000   1.0000   1.0000   1.0000   1.0000   1.0000   1.0000
     1.0000   1.0000   1.0000   1.0000   1.0000   1.0000   1.0000   1.0000
     1.0246   1.0550   1.0053   0.2864   0.0000   0.0000   0.0000

          k = 0.1786 0.3929 0.3929 (  2550 PWs)   bands (ev):

   -30.3644 -19.9926 -12.3446 -12.3423 -11.9535  -9.3815  -8.7699  -8.7480
    -5.1753  -5.1617  -5.0617   3.5656   3.8268   4.2506   4.2555   4.3631
     4.9020   5.2228   5.2274   5.6005  11.8664  12.2414  12.3417

     occupation numbers 
     1.0000   1.0000   1.0000   1.0000   1.0000   1.0000   1.0000   1.0000
     1.0000   1.0000   1.0000   1.0000   1.0000   1.0000   1.0000   1.0000
     1.0257   1.0327   1.0278   0.1897   0.0000   0.0000   0.0000

          k = 0.1786 0.3929 0.4643 (  2559 PWs)   bands (ev):

   -30.3640 -19.9911 -12.3935 -12.3438 -11.9525  -9.3753  -8.7611  -8.6699
    -5.1799  -5.1714  -5.0739   3.5368   3.7556   4.2258   4.2454   4.3300
     4.9378   5.2068   5.2232   5.6364  11.8184  12.3091  12.4340

     occupation numbers 
     1.0000   1.0000   1.0000   1.0000   1.0000   1.0000   1.0000   1.0000
     1.0000   1.0000   1.0000   1.0000   1.0000   1.0000   1.0000   1.0000
     1.0355   1.0480   1.0322   0.1368   0.0000   0.0000   0.0000

          k = 0.1786 0.4643 0.4643 (  2554 PWs)   bands (ev):

[...]

   -30.3651 -19.9956 -12.3414 -12.1211 -12.1010  -9.2327  -9.0678  -8.7496
    -5.1684  -5.1573  -5.0467   3.6906   4.0151   4.1512   4.2817   4.6275
     4.6792   5.2862   5.3247   5.4507  12.0162  12.0407  12.0742

     occupation numbers 
     1.0000   1.0000   1.0000   1.0000   1.0000   1.0000   1.0000   1.0000
     1.0000   1.0000   1.0000   1.0000   1.0000   1.0000   1.0000   1.0006
     1.0014   0.9415   0.8627   0.5321   0.0000   0.0000   0.0000

          k = 0.2500 0.2500 0.4643 (  2551 PWs)   bands (ev):

   -30.3647 -19.9941 -12.3912 -12.1218 -12.0996  -9.2317  -9.0653  -8.6616
    -5.1748  -5.1517  -5.0675   3.7247   3.8574   4.1223   4.2583   4.6289
     4.7062   5.2748   5.3226   5.4606  12.0726  12.1007  12.2707

     occupation numbers 
     1.0000   1.0000   1.0000   1.0000   1.0000   1.0000   1.0000   1.0000
     1.0000   1.0000   1.0000   1.0000   1.0000   1.0000   1.0000   1.0006
     1.0021   0.9615   0.8676   0.5050   0.0000   0.0000   0.0000

          k = 0.2500 0.3214 0.3214 (  2546 PWs)   bands (ev):

   -30.3649 -19.9950 -12.2494 -12.2405 -12.1092  -9.1745  -8.9336  -8.8850
    -5.1783  -5.1746  -5.0474   3.6700   4.0924   4.2184   4.2539   4.5073
     4.6539   5.3140   5.3385   5.4894  11.9064  11.9908  12.0063

     occupation numbers 
     1.0000   1.0000   1.0000   1.0000   1.0000   1.0000   1.0000   1.0000
     1.0000   1.0000   1.0000   1.0000   1.0000   1.0000   1.0000   1.0001
     1.0009   0.8862   0.8308   0.4286   0.0000   0.0000   0.0000

          k = 0.2500 0.3214 0.3929 (  2561 PWs)   bands (ev):

   -30.3642 -19.9922 -12.3407 -12.2444 -12.1076  -9.1605  -8.9107  -8.7490
    -5.1923  -5.1839  -5.0775   3.6692   3.9412   4.1513   4.2299   4.4700
     4.6755   5.3093   5.3533   5.5364  11.9179  12.0417  12.0902

     occupation numbers 
     1.0000   1.0000   1.0000   1.0000   1.0000   1.0000   1.0000   1.0000
     1.0000   1.0000   1.0000   1.0000   1.0000   1.0000   1.0000   1.0000
     1.0013   0.8961   0.7950   0.3147   0.0000   0.0000   0.0000

          k = 0.2500 0.3214 0.4643 (  2557 PWs)   bands (ev):

   -30.3638 -19.9906 -12.3906 -12.2443 -12.1067  -9.1563  -8.9085  -8.6619
    -5.2006  -5.1830  -5.0996   3.6991   3.8082   4.1160   4.2208   4.4659
     4.6900   5.3059   5.3602   5.5598  11.9145  12.0642  12.1908

     occupation numbers 
     1.0000   1.0000   1.0000   1.0000   1.0000   1.0000   1.0000   1.0000
     1.0000   1.0000   1.0000   1.0000   1.0000   1.0000   1.0000   1.0000
     1.0016   0.9032   0.7774   0.2648   0.0000   0.0000   0.0000

          k = 0.2500 0.3929 0.3929 (  2554 PWs)   bands (ev):

   -30.3635 -19.9894 -12.3420 -12.3383 -12.1057  -9.1423  -8.7627  -8.7393
    -5.2066  -5.2030  -5.1088   3.6576   3.8339   4.1712   4.1736   4.3633
     4.6968   5.3323   5.3652   5.6081  11.8016  12.0859  12.0952

     occupation numbers 
     1.0000   1.0000   1.0000   1.0000   1.0000   1.0000   1.0000   1.0000
     1.0000   1.0000   1.0000   1.0000   1.0000   1.0000   1.0000   1.0000
     1.0018   0.8455   0.7647   0.1776   0.0000   0.0000   0.0000

          k = 0.2500 0.3929 0.4643 (  2554 PWs)   bands (ev):

   -30.3632 -19.9879 -12.3901 -12.3399 -12.1045  -9.1357  -8.7512  -8.6622
    -5.2161  -5.2078  -5.1300   3.6680   3.7406   4.1378   4.1817   4.3284
     4.7085   5.3454   5.3716   5.6447  11.7386  12.0845  12.1339

     occupation numbers 
     1.0000   1.0000   1.0000   1.0000   1.0000   1.0000   1.0000   1.0000
     1.0000   1.0000   1.0000   1.0000   1.0000   1.0000   1.0000   1.0000
     1.0022   0.8144   0.7481   0.1263   0.0000   0.0000   0.0000

          k = 0.2500 0.4643 0.4643 (  2542 PWs)   bands (ev):

   -30.3628 -19.9863 -12.3900 -12.3896 -12.1031  -9.1278  -8.6641  -8.6612
    -5.2220  -5.2213  -5.1498   3.6531   3.6849   4.1536   4.1548   4.2739
     4.7165   5.3712   5.3772   5.6896  11.6395  12.1068  12.1074

     occupation numbers 
     1.0000   1.0000   1.0000   1.0000   1.0000   1.0000   1.0000   1.0000
     1.0000   1.0000   1.0000   1.0000   1.0000   1.0000   1.0000   1.0000
     1.0025   0.7491   0.7334   0.0794   0.0000   0.0000   0.0000

          k = 0.3214 0.3214 0.3214 (  2542 PWs)   bands (ev):

   -30.3641 -19.9916 -12.2537 -12.2369 -12.2369  -9.0068  -8.8778  -8.8778
    -5.2021  -5.2021  -5.0826   3.6757   4.1059   4.1429   4.1429   4.5117
     4.5117   5.3842   5.3842   5.5276  11.9051  11.9455  11.9455

     occupation numbers 
     1.0000   1.0000   1.0000   1.0000   1.0000   1.0000   1.0000   1.0000
     1.0000   1.0000   1.0000   1.0000   1.0000   1.0000   1.0000   1.0001
     1.0001   0.7149   0.7149   0.3349   0.0000   0.0000   0.0000

          k = 0.3214 0.3214 0.3929 (  2549 PWs)   bands (ev):

   -30.3634 -19.9888 -12.3387 -12.2474 -12.2340  -8.9700  -8.8719  -8.7439
    -5.2212  -5.2152  -5.1192   3.6898   3.9455   4.0920   4.1624   4.4490
     4.5156   5.3959   5.4422   5.5690  11.8421  11.9416  11.9422

     occupation numbers 
     1.0000   1.0000   1.0000   1.0000   1.0000   1.0000   1.0000   1.0000
     1.0000   1.0000   1.0000   1.0000   1.0000   1.0000   1.0000   1.0000
     1.0001   0.6832   0.5554   0.2463   0.0000   0.0000   0.0000

          k = 0.3214 0.3214 0.4643 (  2549 PWs)   bands (ev):

   -30.3630 -19.9873 -12.3884 -12.2474 -12.2324  -8.9638  -8.8686  -8.6578
    -5.2318  -5.2165  -5.1452   3.7217   3.8159   4.0666   4.1707   4.4352
     4.5179   5.3982   5.4728   5.5931  11.8114  11.9342  11.9537

     occupation numbers 
     1.0000   1.0000   1.0000   1.0000   1.0000   1.0000   1.0000   1.0000
     1.0000   1.0000   1.0000   1.0000   1.0000   1.0000   1.0000   1.0000
     1.0001   0.6770   0.4723   0.2023   0.0000   0.0000   0.0000

          k = 0.3214 0.3929 0.3929 (  2544 PWs)   bands (ev):

   -30.3627 -19.9862 -12.3394 -12.3344 -12.2379  -8.9220  -8.7537  -8.7305
    -5.2394  -5.2379  -5.1593   3.6901   3.8806   4.0978   4.1075   4.3660
     4.4950   5.4586   5.4850   5.6217  11.7292  11.8698  11.8805

     occupation numbers 
     1.0000   1.0000   1.0000   1.0000   1.0000   1.0000   1.0000   1.0000
     1.0000   1.0000   1.0000   1.0000   1.0000   1.0000   1.0000   1.0000
     1.0000   0.5106   0.4401   0.1571   0.0000   0.0000   0.0000

          k = 0.3214 0.3929 0.4643 (  2551 PWs)   bands (ev):

   -30.3623 -19.9847 -12.3867 -12.3360 -12.2367  -8.9139  -8.7405  -8.6545
    -5.2515  -5.2431  -5.1867   3.6807   3.8220   4.0719   4.1220   4.3278
     4.4953   5.4772   5.5145   5.6558  11.6589  11.8439  11.8496

     occupation numbers 
     1.0000   1.0000   1.0000   1.0000   1.0000   1.0000   1.0000   1.0000
     1.0000   1.0000   1.0000   1.0000   1.0000   1.0000   1.0000   1.0000
     1.0000   0.4606   0.3659   0.1132   0.0000   0.0000   0.0000

          k = 0.3214 0.4643 0.4643 (  2546 PWs)   bands (ev):

   -30.3619 -19.9832 -12.3860 -12.3854 -12.2352  -8.9048  -8.6545  -8.6514
    -5.2581  -5.2574  -5.2140   3.6387   3.8150   4.0911   4.0931   4.2763
     4.4942   5.5211   5.5270   5.6996  11.5564  11.8064  11.8088

     occupation numbers 
     1.0000   1.0000   1.0000   1.0000   1.0000   1.0000   1.0000   1.0000
     1.0000   1.0000   1.0000   1.0000   1.0000   1.0000   1.0000   1.0000
     1.0000   0.3500   0.3362   0.0712   0.0000   0.0000   0.0000

          k = 0.3929 0.3929 0.3929 (  2551 PWs)   bands (ev):

   -30.3620 -19.9835 -12.3398 -12.3312 -12.3312  -8.7769  -8.7233  -8.7233
    -5.2630  -5.2630  -5.2046   3.6615   3.9188   4.0621   4.0621   4.3682
     4.3682   5.5576   5.5576   5.6474  11.6509  11.7233  11.7234

     occupation numbers 
     1.0000   1.0000   1.0000   1.0000   1.0000   1.0000   1.0000   1.0000
     1.0000   1.0000   1.0000   1.0000   1.0000   1.0000   1.0000   1.0000
     1.0000   0.2691   0.2691   0.1230   0.0000   0.0000   0.0000

          k = 0.3929 0.3929 0.4643 (  2531 PWs)   bands (ev):

   -30.3616 -19.9821 -12.3840 -12.3357 -12.3294  -8.7570  -8.7193  -8.6483
    -5.2769  -5.2709  -5.2344   3.6258   3.9146   4.0400   4.0755   4.3157
     4.3702   5.5825   5.6117   5.6756  11.5814  11.6407  11.6732

     occupation numbers 
     1.0000   1.0000   1.0000   1.0000   1.0000   1.0000   1.0000   1.0000
     1.0000   1.0000   1.0000   1.0000   1.0000   1.0000   1.0000   1.0000
     1.0000   0.2211   0.1720   0.0923   0.0000   0.0000   0.0000

          k = 0.3929 0.4643 0.4643 (  2538 PWs)   bands (ev):

   -30.3613 -19.9807 -12.3828 -12.3821 -12.3307  -8.7343  -8.6467  -8.6434
    -5.2871  -5.2859  -5.2648   3.5804   3.9414   4.0479   4.0513   4.2781
     4.3466   5.6384   5.6427   5.7076  11.4905  11.5784  11.5822

     occupation numbers 
     1.0000   1.0000   1.0000   1.0000   1.0000   1.0000   1.0000   1.0000
     1.0000   1.0000   1.0000   1.0000   1.0000   1.0000   1.0000   1.0000
     1.0000   0.1343   0.1288   0.0650   0.0000   0.0000   0.0000

          k = 0.4643 0.4643 0.4643 (  2530 PWs)   bands (ev):

   -30.3609 -19.9793 -12.3813 -12.3802 -12.3802  -8.6454  -8.6390  -8.6390
    -5.3017  -5.3017  -5.2942   3.5354   4.0068   4.0303   4.0303   4.2793
     4.2793   5.7029   5.7029   5.7159  11.4500  11.4602  11.4602

     occupation numbers 
     1.0000   1.0000   1.0000   1.0000   1.0000   1.0000   1.0000   1.0000
     1.0000   1.0000   1.0000   1.0000   1.0000   1.0000   1.0000   1.0000
     1.0000   0.0686   0.0686   0.0591   0.0000   0.0000   0.0000

     the Fermi energy is     5.5004 ev

!    total energy              =    -628.28676501 Ry
     estimated scf accuracy    <          8.7E-09 Ry
     smearing contrib. (-TS)   =      -0.00190814 Ry
     internal energy E=F+TS    =    -628.28485687 Ry

     The total energy is F=E-TS. E is the sum of the following terms:
     one-electron contribution =     -64.48366149 Ry
     hartree contribution      =      52.32519977 Ry
     xc contribution           =     -53.70760153 Ry
     ewald contribution        =    -166.45952522 Ry
     one-center paw contrib.   =    -395.95926841 Ry
      -> PAW hartree energy AE =      28.32980773 Ry
      -> PAW hartree energy PS =     -28.21321169 Ry
      -> PAW xc energy AE      =    -387.73038152 Ry
      -> PAW xc energy PS      =      19.01815448 Ry
      -> total E_H with PAW    =      52.44179581 Ry
      -> total E_XC with PAW   =    -422.41982857 Ry

     convergence has been achieved in  11 iterations

     Forces acting on atoms (cartesian axes, Ry/au):

     atom    1 type  1   force =     0.00000000    0.00000000    0.00000000
     atom    2 type  2   force =     0.00000000    0.00000000    0.00000000
     atom    3 type  3   force =     0.00000000    0.00000000    0.00000000
     atom    4 type  3   force =     0.00000000    0.00000000    0.00000000
     atom    5 type  3   force =     0.00000000    0.00000000    0.00000000
     The non-local contrib.  to forces
     atom    1 type  1   force =     0.00000000    0.00000000    0.00000000
     atom    2 type  2   force =     0.00000000    0.00000000    0.00000000
     atom    3 type  3   force =     0.00000000    0.00000000    0.00000000
     atom    4 type  3   force =     0.00000000    0.00000000    0.00000000
     atom    5 type  3   force =     0.00000000    0.00000000    0.00000000
     The ionic contribution  to forces
     atom    1 type  1   force =    -0.00000000   -0.00000000   -0.00000000
     atom    2 type  2   force =     0.00000000    0.00000000    0.00000000
     atom    3 type  3   force =     0.00000000    0.00000000   -0.00000000
     atom    4 type  3   force =     0.00000000   -0.00000000    0.00000000
     atom    5 type  3   force =    -0.00000000    0.00000000    0.00000000
     The local contribution  to forces
     atom    1 type  1   force =     0.00000000    0.00000000    0.00000000
     atom    2 type  2   force =     0.00000000    0.00000000    0.00000000
     atom    3 type  3   force =     0.00000000    0.00000000    0.00000000
     atom    4 type  3   force =     0.00000000    0.00000000    0.00000000
     atom    5 type  3   force =     0.00000000    0.00000000    0.00000000
     The core correction contribution to forces
     atom    1 type  1   force =     0.00000000    0.00000000    0.00000000
     atom    2 type  2   force =     0.00000000    0.00000000   -0.00000000
     atom    3 type  3   force =     0.00000000    0.00000000   -0.00000000
     atom    4 type  3   force =     0.00000000   -0.00000000   -0.00000000
     atom    5 type  3   force =     0.00000000    0.00000000   -0.00000000
     The Hubbard contrib.    to forces
     atom    1 type  1   force =     0.00000000    0.00000000    0.00000000
     atom    2 type  2   force =     0.00000000    0.00000000    0.00000000
     atom    3 type  3   force =     0.00000000    0.00000000    0.00000000
     atom    4 type  3   force =     0.00000000    0.00000000    0.00000000
     atom    5 type  3   force =     0.00000000    0.00000000    0.00000000
     The SCF correction term to forces
     atom    1 type  1   force =    -0.00000000   -0.00000000   -0.00000000
     atom    2 type  2   force =     0.00000000    0.00000000    0.00000000
     atom    3 type  3   force =    -0.00000000   -0.00000000   -0.00000000
     atom    4 type  3   force =     0.00000000    0.00000000   -0.00000000
     atom    5 type  3   force =    -0.00000000   -0.00000000    0.00000000

     Total force =     0.000000     Total SCF correction =     0.000000


     Computing stress (Cartesian axis) and pressure

          total   stress  (Ry/bohr**3)                   (kbar)     P=      -65.70
  -0.00044662   0.00000000   0.00000000          -65.70        0.00        0.00
   0.00000000  -0.00044662   0.00000000            0.00      -65.70        0.00
   0.00000000   0.00000000  -0.00044662            0.00        0.00      -65.70

     kinetic stress (kbar)  14362.01      0.00      0.00
                                0.00  14362.01      0.00
                                0.00      0.00  14362.01

     local   stress (kbar)  -6185.37      0.00      0.00
                                0.00  -6185.37      0.00
                                0.00      0.00  -6185.37

     nonloc. stress (kbar)   4519.39      0.00      0.00
                                0.00   4519.39      0.00
                                0.00      0.00   4519.39

     hartree stress (kbar)   4272.91     -0.00     -0.00
                               -0.00   4272.91     -0.00
                               -0.00     -0.00   4272.91

     exc-cor stress (kbar)    451.51     -0.00     -0.00
                               -0.00    451.51     -0.00
                               -0.00     -0.00    451.51

     corecor stress (kbar)  -3892.95      0.00     -0.00
                                0.00  -3892.95      0.00
                               -0.00      0.00  -3892.95

     ewald   stress (kbar) -13593.20     -0.00     -0.00
                               -0.00 -13593.20     -0.00
                               -0.00     -0.00 -13593.20

     hubbard stress (kbar)      0.00      0.00      0.00
                                0.00      0.00      0.00
                                0.00      0.00      0.00

     DFT-D   stress (kbar)      0.00      0.00      0.00
                                0.00      0.00      0.00
                                0.00      0.00      0.00

     XDM     stress (kbar)      0.00      0.00      0.00
                                0.00      0.00      0.00
                                0.00      0.00      0.00

     dft-nl  stress (kbar)      0.00      0.00      0.00
                                0.00      0.00      0.00
                                0.00      0.00      0.00

     TS-vdW  stress (kbar)      0.00      0.00      0.00
                                0.00      0.00      0.00
                                0.00      0.00      0.00

     MDB     stress (kbar)      0.00      0.00      0.00
                                0.00      0.00      0.00
                                0.00      0.00      0.00

     3D-RISM stress (kbar)      0.00      0.00      0.00
                                0.00      0.00      0.00
                                0.00      0.00      0.00


     Writing all to output data dir ./out/BCO.save/ :
     XML data file, charge density, pseudopotentials, collected wavefunctions

     init_run     :      1.54s CPU      1.59s WALL (       1 calls)
     electrons    :     23.38s CPU     24.27s WALL (       1 calls)
     forces       :      0.25s CPU      0.26s WALL (       1 calls)
     stress       :      0.97s CPU      1.00s WALL (       1 calls)

     Called by init_run:
     wfcinit      :      0.74s CPU      0.75s WALL (       1 calls)
     wfcinit:atom :      0.00s CPU      0.00s WALL (      42 calls)
     wfcinit:wfcr :      0.72s CPU      0.73s WALL (      42 calls)
     potinit      :      0.32s CPU      0.33s WALL (       1 calls)
     hinit0       :      0.37s CPU      0.37s WALL (       1 calls)

     Called by electrons:
     c_bands      :     19.67s CPU     20.32s WALL (      11 calls)
     sum_band     :      2.38s CPU      2.54s WALL (      11 calls)
     v_of_rho     :      0.15s CPU      0.16s WALL (      12 calls)
     v_h          :      0.01s CPU      0.01s WALL (      12 calls)
     v_xc         :      0.16s CPU      0.18s WALL (      14 calls)
     newd         :      0.58s CPU      0.59s WALL (      12 calls)
     PAW_pot      :      0.70s CPU      0.74s WALL (      12 calls)
     mix_rho      :      0.01s CPU      0.01s WALL (      11 calls)

     Called by c_bands:
     init_us_2    :      0.13s CPU      0.14s WALL (    1050 calls)
     init_us_2:cp :      0.13s CPU      0.13s WALL (    1050 calls)
     cegterg      :     17.00s CPU     17.61s WALL (     462 calls)

     Called by sum_band:
     sum_band:wei :      0.02s CPU      0.02s WALL (      11 calls)
     sum_band:loo :      1.68s CPU      1.78s WALL (      11 calls)
     sum_band:buf :      0.01s CPU      0.01s WALL (     462 calls)
     sum_band:ini :      0.04s CPU      0.04s WALL (     462 calls)
     sum_band:cal :      0.44s CPU      0.49s WALL (     462 calls)
     sum_band:bec :      0.01s CPU      0.02s WALL (     462 calls)
     addusdens    :      0.52s CPU      0.56s WALL (      11 calls)
                                        0.00s GPU  (      11 calls)
     addusd:skk   :      0.00s CPU      0.00s WALL (      33 calls)
                                        0.00s GPU  (      33 calls)

     Called by *egterg:
     cdiaghg      :      1.72s CPU      1.79s WALL (    2392 calls)
     cegterg:over :      1.58s CPU      1.65s WALL (    1930 calls)
     cegterg:upda :      0.53s CPU      0.55s WALL (    1930 calls)
     cegterg:last :      1.27s CPU      1.31s WALL (    1035 calls)
     h_psi        :     10.21s CPU     10.58s WALL (    2434 calls)
     s_psi        :      1.12s CPU      1.15s WALL (    2434 calls)
     g_psi        :      0.01s CPU      0.02s WALL (    1930 calls)

     Called by h_psi:
     h_psi:calbec :      1.44s CPU      1.51s WALL (    2434 calls)
     vloc_psi     :      7.62s CPU      7.89s WALL (    2434 calls)
     add_vuspsi   :      1.12s CPU      1.16s WALL (    2434 calls)

     General routines
     calbec       :      2.20s CPU      2.32s WALL (    3106 calls)
     fft          :      0.28s CPU      0.29s WALL (     179 calls)
     ffts         :      0.19s CPU      0.19s WALL (      23 calls)
     fftw         :      8.23s CPU      8.51s WALL (   70406 calls)
     interpolate  :      0.20s CPU      0.20s WALL (      12 calls)

     Parallel routines

     PAW routines
     PAW_pot      :      0.70s CPU      0.74s WALL (      12 calls)
     PAW_symme    :      0.01s CPU      0.02s WALL (      23 calls)

     PWSCF        :     27.38s CPU     28.77s WALL


   This run was terminated on:  18:55:54   7Apr2025            

=------------------------------------------------------------------------------=
   JOB DONE.
=------------------------------------------------------------------------------=
