
     Program PWSCF v.7.3 starts on  7Apr2025 at 18:54:11 

     This program is part of the open-source Quantum ESPRESSO suite
     for quantum simulation of materials; please cite
         "P. Giannozzi et al., J. Phys.:Condens. Matter 21 395502 (2009);
         "P. Giannozzi et al., J. Phys.:Condens. Matter 29 465901 (2017);
         "P. Giannozzi et al., J. Chem. Phys. 152 154105 (2020);
          URL http://www.quantum-espresso.org", 
     in publications or presentations arising from this work. More details at
     http://www.quantum-espresso.org/quote

     Parallel version (MPI), running on    20 processors

     MPI processes distributed on     1 nodes
     26291 MiB available memory on the printing compute node when the environment starts

     Waiting for input...
     Reading input from standard input

     Current dimensions of program PWSCF are:
     Max number of different atomic species (ntypx) = 10
     Max number of k-points (npk) = 120000
     Max angular momentum in pseudopotentials (lmaxx) =  4
     file Ba.pbesol-spn-kjpaw_psl.1.0.0.UPF: wavefunction(s)  5S 6S renormalized
     file O.pbesol-n-kjpaw_psl.0.1.UPF: wavefunction(s)  2P renormalized
     Message from routine setup:
     using ibrav=0 with symmetry is DISCOURAGED, use correct ibrav instead

     K-points division:     npool     =       2
     R & G space division:  proc/nbgrp/npool/nimage =      10
     Subspace diagonalization in iterative solution of the eigenvalue problem:
     a serial algorithm will be used


     Parallelization info
     --------------------
     sticks:   dense  smooth     PW     G-vecs:    dense   smooth      PW
     Min         224      88     27                 8096     2036     328
     Max         225      90     29                 8101     2039     329
     Sum        2249     889    277                80989    20377    3287

     Using Slab Decomposition



     bravais-lattice index     =            0
     lattice parameter (alat)  =       8.4365  a.u.
     unit-cell volume          =     600.4730 (a.u.)^3
     number of atoms/cell      =            5
     number of atomic types    =            3
     number of electrons       =        38.00
     number of Kohn-Sham states=           23
     kinetic-energy cutoff     =      40.0000  Ry
     charge density cutoff     =     400.0000  Ry
     scf convergence threshold =      1.0E-07
     mixing beta               =       0.4000
     number of iterations used =            8  plain     mixing
     Exchange-correlation= SLA  PW   PSX  PSC
                           (   1   4  10   8   0   0   0)

     celldm(1)=   8.436542  celldm(2)=   0.000000  celldm(3)=   0.000000
     celldm(4)=   0.000000  celldm(5)=   0.000000  celldm(6)=   0.000000

     crystal axes: (cart. coord. in units of alat)
               a(1) = (   1.000000   0.000000   0.000000 )  
               a(2) = (   0.000000   1.000000   0.000000 )  
               a(3) = (   0.000000   0.000000   1.000000 )  

     reciprocal axes: (cart. coord. in units 2 pi/alat)
               b(1) = (  1.000000  0.000000  0.000000 )  
               b(2) = (  0.000000  1.000000  0.000000 )  
               b(3) = (  0.000000  0.000000  1.000000 )  


     PseudoPot. # 1 for Ba read from file:
     ./pseudo/Ba.pbesol-spn-kjpaw_psl.1.0.0.UPF
     MD5 check sum: f28c4a63d325c1a0d00fd3a4f19b8d73
     Pseudo is Projector augmented-wave + core cor, Zval = 10.0
     Generated using "atomic" code by A. Dal Corso  v.6.0 svn rev. 13079
     Shape of augmentation charge: PSQ
     Using radial grid of 1251 points,  7 beta functions with: 
                l(1) =   0
                l(2) =   0
                l(3) =   0
                l(4) =   1
                l(5) =   1
                l(6) =   2
                l(7) =   2
     Q(r) pseudized with 0 coefficients 


     PseudoPot. # 2 for Ca read from file:
     ./pseudo/ca_pbesol_v1.uspp.F.UPF
     MD5 check sum: 0533207b58cddeaa036efa5b63902087
     Pseudo is Ultrasoft + core correction, Zval = 10.0
     Generated by new atomic code, or converted to UPF format
     Using radial grid of  845 points,  6 beta functions with: 
                l(1) =   0
                l(2) =   0
                l(3) =   1
                l(4) =   1
                l(5) =   2
                l(6) =   2
     Q(r) pseudized with  8 coefficients,  rinner =    1.500   1.500   1.500
                                                       1.500   1.500

     PseudoPot. # 3 for O  read from file:
     ./pseudo/O.pbesol-n-kjpaw_psl.0.1.UPF
     MD5 check sum: 81d73d1479e654e5638b0319f0d6c2c7
     Pseudo is Projector augmented-wave + core cor, Zval =  6.0
     Generated using "atomic" code by A. Dal Corso  v.6.0 svn rev. 13079
     Shape of augmentation charge: BESSEL
     Using radial grid of 1095 points,  4 beta functions with: 
                l(1) =   0
                l(2) =   0
                l(3) =   1
                l(4) =   1
     Q(r) pseudized with 0 coefficients 


     atomic species   valence    mass     pseudopotential
     Ba               10.00   137.32700     Ba( 1.00)
     Ca               10.00    40.07800     Ca( 1.00)
     O                 6.00    15.99940     O ( 1.00)

     48 Sym. Ops., with inversion, found


                                    s                        frac. trans.

      isym =  1     identity                                     

 cryst.   s( 1) = (     1          0          0      )
                  (     0          1          0      )
                  (     0          0          1      )

 cart.    s( 1) = (  1.0000000  0.0000000  0.0000000 )
                  (  0.0000000  1.0000000  0.0000000 )
                  (  0.0000000  0.0000000  1.0000000 )


      isym =  2     180 deg rotation - cart. axis [0,0,1]        

 cryst.   s( 2) = (    -1          0          0      )
                  (     0         -1          0      )
                  (     0          0          1      )

 cart.    s( 2) = ( -1.0000000  0.0000000  0.0000000 )
                  (  0.0000000 -1.0000000  0.0000000 )
                  (  0.0000000  0.0000000  1.0000000 )


      isym =  3     180 deg rotation - cart. axis [0,1,0]        

 cryst.   s( 3) = (    -1          0          0      )
                  (     0          1          0      )
                  (     0          0         -1      )

 cart.    s( 3) = ( -1.0000000  0.0000000  0.0000000 )
                  (  0.0000000  1.0000000  0.0000000 )
                  (  0.0000000  0.0000000 -1.0000000 )


      isym =  4     180 deg rotation - cart. axis [1,0,0]        

 cryst.   s( 4) = (     1          0          0      )
                  (     0         -1          0      )
                  (     0          0         -1      )

 cart.    s( 4) = (  1.0000000  0.0000000  0.0000000 )
                  (  0.0000000 -1.0000000  0.0000000 )
                  (  0.0000000  0.0000000 -1.0000000 )


      isym =  5     180 deg rotation - cart. axis [1,1,0]        

 cryst.   s( 5) = (     0          1          0      )
                  (     1          0          0      )
                  (     0          0         -1      )

 cart.    s( 5) = (  0.0000000  1.0000000  0.0000000 )
                  (  1.0000000  0.0000000  0.0000000 )
                  (  0.0000000  0.0000000 -1.0000000 )


      isym =  6     180 deg rotation - cart. axis [1,-1,0]       

 cryst.   s( 6) = (     0         -1          0      )
                  (    -1          0          0      )
                  (     0          0         -1      )

 cart.    s( 6) = (  0.0000000 -1.0000000  0.0000000 )
                  ( -1.0000000  0.0000000  0.0000000 )
                  (  0.0000000  0.0000000 -1.0000000 )


      isym =  7      90 deg rotation - cart. axis [0,0,-1]       

 cryst.   s( 7) = (     0         -1          0      )
                  (     1          0          0      )
                  (     0          0          1      )

 cart.    s( 7) = (  0.0000000  1.0000000  0.0000000 )
                  ( -1.0000000  0.0000000  0.0000000 )
                  (  0.0000000  0.0000000  1.0000000 )


      isym =  8      90 deg rotation - cart. axis [0,0,1]        

 cryst.   s( 8) = (     0          1          0      )
                  (    -1          0          0      )
                  (     0          0          1      )

 cart.    s( 8) = (  0.0000000 -1.0000000  0.0000000 )
                  (  1.0000000  0.0000000  0.0000000 )
                  (  0.0000000  0.0000000  1.0000000 )


      isym =  9     180 deg rotation - cart. axis [1,0,1]        

 cryst.   s( 9) = (     0          0          1      )
                  (     0         -1          0      )
                  (     1          0          0      )

 cart.    s( 9) = (  0.0000000  0.0000000  1.0000000 )
                  (  0.0000000 -1.0000000  0.0000000 )
                  (  1.0000000  0.0000000  0.0000000 )


      isym = 10     180 deg rotation - cart. axis [-1,0,1]       

 cryst.   s(10) = (     0          0         -1      )
                  (     0         -1          0      )
                  (    -1          0          0      )

 cart.    s(10) = (  0.0000000  0.0000000 -1.0000000 )
                  (  0.0000000 -1.0000000  0.0000000 )
                  ( -1.0000000  0.0000000  0.0000000 )


      isym = 11      90 deg rotation - cart. axis [0,1,0]        

 cryst.   s(11) = (     0          0         -1      )
                  (     0          1          0      )
                  (     1          0          0      )

 cart.    s(11) = (  0.0000000  0.0000000  1.0000000 )
                  (  0.0000000  1.0000000  0.0000000 )
                  ( -1.0000000  0.0000000  0.0000000 )


      isym = 12      90 deg rotation - cart. axis [0,-1,0]       

 cryst.   s(12) = (     0          0          1      )
                  (     0          1          0      )
                  (    -1          0          0      )

 cart.    s(12) = (  0.0000000  0.0000000 -1.0000000 )
                  (  0.0000000  1.0000000  0.0000000 )
                  (  1.0000000  0.0000000  0.0000000 )


      isym = 13     180 deg rotation - cart. axis [0,1,1]        

 cryst.   s(13) = (    -1          0          0      )
                  (     0          0          1      )
                  (     0          1          0      )

 cart.    s(13) = ( -1.0000000  0.0000000  0.0000000 )
                  (  0.0000000  0.0000000  1.0000000 )
                  (  0.0000000  1.0000000  0.0000000 )


      isym = 14     180 deg rotation - cart. axis [0,1,-1]       

 cryst.   s(14) = (    -1          0          0      )
                  (     0          0         -1      )
                  (     0         -1          0      )

 cart.    s(14) = ( -1.0000000  0.0000000  0.0000000 )
                  (  0.0000000  0.0000000 -1.0000000 )
                  (  0.0000000 -1.0000000  0.0000000 )


      isym = 15      90 deg rotation - cart. axis [-1,0,0]       

 cryst.   s(15) = (     1          0          0      )
                  (     0          0         -1      )
                  (     0          1          0      )

 cart.    s(15) = (  1.0000000  0.0000000  0.0000000 )
                  (  0.0000000  0.0000000  1.0000000 )
                  (  0.0000000 -1.0000000  0.0000000 )


      isym = 16      90 deg rotation - cart. axis [1,0,0]        

 cryst.   s(16) = (     1          0          0      )
                  (     0          0          1      )
                  (     0         -1          0      )

 cart.    s(16) = (  1.0000000  0.0000000  0.0000000 )
                  (  0.0000000  0.0000000 -1.0000000 )
                  (  0.0000000  1.0000000  0.0000000 )


      isym = 17     120 deg rotation - cart. axis [-1,-1,-1]     

 cryst.   s(17) = (     0          0          1      )
                  (     1          0          0      )
                  (     0          1          0      )

 cart.    s(17) = (  0.0000000  1.0000000  0.0000000 )
                  (  0.0000000  0.0000000  1.0000000 )
                  (  1.0000000  0.0000000  0.0000000 )


      isym = 18     120 deg rotation - cart. axis [-1,1,1]       

 cryst.   s(18) = (     0          0         -1      )
                  (    -1          0          0      )
                  (     0          1          0      )

 cart.    s(18) = (  0.0000000 -1.0000000  0.0000000 )
                  (  0.0000000  0.0000000  1.0000000 )
                  ( -1.0000000  0.0000000  0.0000000 )


      isym = 19     120 deg rotation - cart. axis [1,1,-1]       

 cryst.   s(19) = (     0          0         -1      )
                  (     1          0          0      )
                  (     0         -1          0      )

 cart.    s(19) = (  0.0000000  1.0000000  0.0000000 )
                  (  0.0000000  0.0000000 -1.0000000 )
                  ( -1.0000000  0.0000000  0.0000000 )


      isym = 20     120 deg rotation - cart. axis [1,-1,1]       

 cryst.   s(20) = (     0          0          1      )
                  (    -1          0          0      )
                  (     0         -1          0      )

 cart.    s(20) = (  0.0000000 -1.0000000  0.0000000 )
                  (  0.0000000  0.0000000 -1.0000000 )
                  (  1.0000000  0.0000000  0.0000000 )


      isym = 21     120 deg rotation - cart. axis [1,1,1]        

 cryst.   s(21) = (     0          1          0      )
                  (     0          0          1      )
                  (     1          0          0      )

 cart.    s(21) = (  0.0000000  0.0000000  1.0000000 )
                  (  1.0000000  0.0000000  0.0000000 )
                  (  0.0000000  1.0000000  0.0000000 )


      isym = 22     120 deg rotation - cart. axis [-1,1,-1]      

 cryst.   s(22) = (     0         -1          0      )
                  (     0          0         -1      )
                  (     1          0          0      )

 cart.    s(22) = (  0.0000000  0.0000000  1.0000000 )
                  ( -1.0000000  0.0000000  0.0000000 )
                  (  0.0000000 -1.0000000  0.0000000 )


      isym = 23     120 deg rotation - cart. axis [1,-1,-1]      

 cryst.   s(23) = (     0         -1          0      )
                  (     0          0          1      )
                  (    -1          0          0      )

 cart.    s(23) = (  0.0000000  0.0000000 -1.0000000 )
                  ( -1.0000000  0.0000000  0.0000000 )
                  (  0.0000000  1.0000000  0.0000000 )


      isym = 24     120 deg rotation - cart. axis [-1,-1,1]      

 cryst.   s(24) = (     0          1          0      )
                  (     0          0         -1      )
                  (    -1          0          0      )

 cart.    s(24) = (  0.0000000  0.0000000 -1.0000000 )
                  (  1.0000000  0.0000000  0.0000000 )
                  (  0.0000000 -1.0000000  0.0000000 )


      isym = 25     inversion                                    

 cryst.   s(25) = (    -1          0          0      )
                  (     0         -1          0      )
                  (     0          0         -1      )

 cart.    s(25) = ( -1.0000000  0.0000000  0.0000000 )
                  (  0.0000000 -1.0000000  0.0000000 )
                  (  0.0000000  0.0000000 -1.0000000 )


      isym = 26     inv. 180 deg rotation - cart. axis [0,0,1]   

 cryst.   s(26) = (     1          0          0      )
                  (     0          1          0      )
                  (     0          0         -1      )

 cart.    s(26) = (  1.0000000  0.0000000  0.0000000 )
                  (  0.0000000  1.0000000  0.0000000 )
                  (  0.0000000  0.0000000 -1.0000000 )


      isym = 27     inv. 180 deg rotation - cart. axis [0,1,0]   

 cryst.   s(27) = (     1          0          0      )
                  (     0         -1          0      )
                  (     0          0          1      )

 cart.    s(27) = (  1.0000000  0.0000000  0.0000000 )
                  (  0.0000000 -1.0000000  0.0000000 )
                  (  0.0000000  0.0000000  1.0000000 )


      isym = 28     inv. 180 deg rotation - cart. axis [1,0,0]   

 cryst.   s(28) = (    -1          0          0      )
                  (     0          1          0      )
                  (     0          0          1      )

 cart.    s(28) = ( -1.0000000  0.0000000  0.0000000 )
                  (  0.0000000  1.0000000  0.0000000 )
                  (  0.0000000  0.0000000  1.0000000 )


      isym = 29     inv. 180 deg rotation - cart. axis [1,1,0]   

 cryst.   s(29) = (     0         -1          0      )
                  (    -1          0          0      )
                  (     0          0          1      )

 cart.    s(29) = (  0.0000000 -1.0000000  0.0000000 )
                  ( -1.0000000  0.0000000  0.0000000 )
                  (  0.0000000  0.0000000  1.0000000 )


      isym = 30     inv. 180 deg rotation - cart. axis [1,-1,0]  

 cryst.   s(30) = (     0          1          0      )
                  (     1          0          0      )
                  (     0          0          1      )

 cart.    s(30) = (  0.0000000  1.0000000  0.0000000 )
                  (  1.0000000  0.0000000  0.0000000 )
                  (  0.0000000  0.0000000  1.0000000 )


      isym = 31     inv.  90 deg rotation - cart. axis [0,0,-1]  

 cryst.   s(31) = (     0          1          0      )
                  (    -1          0          0      )
                  (     0          0         -1      )

 cart.    s(31) = (  0.0000000 -1.0000000  0.0000000 )
                  (  1.0000000  0.0000000  0.0000000 )
                  (  0.0000000  0.0000000 -1.0000000 )


      isym = 32     inv.  90 deg rotation - cart. axis [0,0,1]   

 cryst.   s(32) = (     0         -1          0      )
                  (     1          0          0      )
                  (     0          0         -1      )

 cart.    s(32) = (  0.0000000  1.0000000  0.0000000 )
                  ( -1.0000000  0.0000000  0.0000000 )
                  (  0.0000000  0.0000000 -1.0000000 )


      isym = 33     inv. 180 deg rotation - cart. axis [1,0,1]   

 cryst.   s(33) = (     0          0         -1      )
                  (     0          1          0      )
                  (    -1          0          0      )

 cart.    s(33) = (  0.0000000  0.0000000 -1.0000000 )
                  (  0.0000000  1.0000000  0.0000000 )
                  ( -1.0000000  0.0000000  0.0000000 )


      isym = 34     inv. 180 deg rotation - cart. axis [-1,0,1]  

 cryst.   s(34) = (     0          0          1      )
                  (     0          1          0      )
                  (     1          0          0      )

 cart.    s(34) = (  0.0000000  0.0000000  1.0000000 )
                  (  0.0000000  1.0000000  0.0000000 )
                  (  1.0000000  0.0000000  0.0000000 )


      isym = 35     inv.  90 deg rotation - cart. axis [0,1,0]   

 cryst.   s(35) = (     0          0          1      )
                  (     0         -1          0      )
                  (    -1          0          0      )

 cart.    s(35) = (  0.0000000  0.0000000 -1.0000000 )
                  (  0.0000000 -1.0000000  0.0000000 )
                  (  1.0000000  0.0000000  0.0000000 )


      isym = 36     inv.  90 deg rotation - cart. axis [0,-1,0]  

 cryst.   s(36) = (     0          0         -1      )
                  (     0         -1          0      )
                  (     1          0          0      )

 cart.    s(36) = (  0.0000000  0.0000000  1.0000000 )
                  (  0.0000000 -1.0000000  0.0000000 )
                  ( -1.0000000  0.0000000  0.0000000 )


      isym = 37     inv. 180 deg rotation - cart. axis [0,1,1]   

 cryst.   s(37) = (     1          0          0      )
                  (     0          0         -1      )
                  (     0         -1          0      )

 cart.    s(37) = (  1.0000000  0.0000000  0.0000000 )
                  (  0.0000000  0.0000000 -1.0000000 )
                  (  0.0000000 -1.0000000  0.0000000 )


      isym = 38     inv. 180 deg rotation - cart. axis [0,1,-1]  

 cryst.   s(38) = (     1          0          0      )
                  (     0          0          1      )
                  (     0          1          0      )

 cart.    s(38) = (  1.0000000  0.0000000  0.0000000 )
                  (  0.0000000  0.0000000  1.0000000 )
                  (  0.0000000  1.0000000  0.0000000 )


      isym = 39     inv.  90 deg rotation - cart. axis [-1,0,0]  

 cryst.   s(39) = (    -1          0          0      )
                  (     0          0          1      )
                  (     0         -1          0      )

 cart.    s(39) = ( -1.0000000  0.0000000  0.0000000 )
                  (  0.0000000  0.0000000 -1.0000000 )
                  (  0.0000000  1.0000000  0.0000000 )


      isym = 40     inv.  90 deg rotation - cart. axis [1,0,0]   

 cryst.   s(40) = (    -1          0          0      )
                  (     0          0         -1      )
                  (     0          1          0      )

 cart.    s(40) = ( -1.0000000  0.0000000  0.0000000 )
                  (  0.0000000  0.0000000  1.0000000 )
                  (  0.0000000 -1.0000000  0.0000000 )


      isym = 41     inv. 120 deg rotation - cart. axis [-1,-1,-1]

 cryst.   s(41) = (     0          0         -1      )
                  (    -1          0          0      )
                  (     0         -1          0      )

 cart.    s(41) = (  0.0000000 -1.0000000  0.0000000 )
                  (  0.0000000  0.0000000 -1.0000000 )
                  ( -1.0000000  0.0000000  0.0000000 )


      isym = 42     inv. 120 deg rotation - cart. axis [-1,1,1]  

 cryst.   s(42) = (     0          0          1      )
                  (     1          0          0      )
                  (     0         -1          0      )

 cart.    s(42) = (  0.0000000  1.0000000  0.0000000 )
                  (  0.0000000  0.0000000 -1.0000000 )
                  (  1.0000000  0.0000000  0.0000000 )


      isym = 43     inv. 120 deg rotation - cart. axis [1,1,-1]  

 cryst.   s(43) = (     0          0          1      )
                  (    -1          0          0      )
                  (     0          1          0      )

 cart.    s(43) = (  0.0000000 -1.0000000  0.0000000 )
                  (  0.0000000  0.0000000  1.0000000 )
                  (  1.0000000  0.0000000  0.0000000 )


      isym = 44     inv. 120 deg rotation - cart. axis [1,-1,1]  

 cryst.   s(44) = (     0          0         -1      )
                  (     1          0          0      )
                  (     0          1          0      )

 cart.    s(44) = (  0.0000000  1.0000000  0.0000000 )
                  (  0.0000000  0.0000000  1.0000000 )
                  ( -1.0000000  0.0000000  0.0000000 )


      isym = 45     inv. 120 deg rotation - cart. axis [1,1,1]   

 cryst.   s(45) = (     0         -1          0      )
                  (     0          0         -1      )
                  (    -1          0          0      )

 cart.    s(45) = (  0.0000000  0.0000000 -1.0000000 )
                  ( -1.0000000  0.0000000  0.0000000 )
                  (  0.0000000 -1.0000000  0.0000000 )


      isym = 46     inv. 120 deg rotation - cart. axis [-1,1,-1] 

 cryst.   s(46) = (     0          1          0      )
                  (     0          0          1      )
                  (    -1          0          0      )

 cart.    s(46) = (  0.0000000  0.0000000 -1.0000000 )
                  (  1.0000000  0.0000000  0.0000000 )
                  (  0.0000000  1.0000000  0.0000000 )


      isym = 47     inv. 120 deg rotation - cart. axis [1,-1,-1] 

 cryst.   s(47) = (     0          1          0      )
                  (     0          0         -1      )
                  (     1          0          0      )

 cart.    s(47) = (  0.0000000  0.0000000  1.0000000 )
                  (  1.0000000  0.0000000  0.0000000 )
                  (  0.0000000 -1.0000000  0.0000000 )


      isym = 48     inv. 120 deg rotation - cart. axis [-1,-1,1] 

 cryst.   s(48) = (     0         -1          0      )
                  (     0          0          1      )
                  (     1          0          0      )

 cart.    s(48) = (  0.0000000  0.0000000  1.0000000 )
                  ( -1.0000000  0.0000000  0.0000000 )
                  (  0.0000000  1.0000000  0.0000000 )


   Cartesian axes

     site n.     atom                  positions (alat units)
         1        Ba     tau(   1) = (   0.0000000   0.0000000   0.0000000  )
         2        Ca     tau(   2) = (   0.5000000   0.5000000   0.5000000  )
         3        O      tau(   3) = (   0.5000000   0.5000000   0.0000000  )
         4        O      tau(   4) = (   0.5000000   0.0000000   0.5000000  )
         5        O      tau(   5) = (   0.0000000   0.5000000   0.5000000  )

   Crystallographic axes

     site n.     atom                  positions (cryst. coord.)
         1        Ba     tau(   1) = (  0.0000000  0.0000000  0.0000000  )
         2        Ca     tau(   2) = (  0.5000000  0.5000000  0.5000000  )
         3        O      tau(   3) = (  0.5000000  0.5000000  0.0000000  )
         4        O      tau(   4) = (  0.5000000  0.0000000  0.5000000  )
         5        O      tau(   5) = (  0.0000000  0.5000000  0.5000000  )

     number of k points=    35  Marzari-Vanderbilt smearing, width (Ry)=  0.0200
                       cart. coord. in units 2pi/alat
        k(    1) = (   0.0500000   0.0500000   0.0500000), wk =   0.0160000
        k(    2) = (   0.0500000   0.0500000   0.1500000), wk =   0.0480000
        k(    3) = (   0.0500000   0.0500000   0.2500000), wk =   0.0480000
        k(    4) = (   0.0500000   0.0500000   0.3500000), wk =   0.0480000
        k(    5) = (   0.0500000   0.0500000   0.4500000), wk =   0.0480000
        k(    6) = (   0.0500000   0.1500000   0.1500000), wk =   0.0480000
        k(    7) = (   0.0500000   0.1500000   0.2500000), wk =   0.0960000
        k(    8) = (   0.0500000   0.1500000   0.3500000), wk =   0.0960000
        k(    9) = (   0.0500000   0.1500000   0.4500000), wk =   0.0960000
        k(   10) = (   0.0500000   0.2500000   0.2500000), wk =   0.0480000
        k(   11) = (   0.0500000   0.2500000   0.3500000), wk =   0.0960000
        k(   12) = (   0.0500000   0.2500000   0.4500000), wk =   0.0960000
        k(   13) = (   0.0500000   0.3500000   0.3500000), wk =   0.0480000
        k(   14) = (   0.0500000   0.3500000   0.4500000), wk =   0.0960000
        k(   15) = (   0.0500000   0.4500000   0.4500000), wk =   0.0480000
        k(   16) = (   0.1500000   0.1500000   0.1500000), wk =   0.0160000
        k(   17) = (   0.1500000   0.1500000   0.2500000), wk =   0.0480000
        k(   18) = (   0.1500000   0.1500000   0.3500000), wk =   0.0480000
        k(   19) = (   0.1500000   0.1500000   0.4500000), wk =   0.0480000
        k(   20) = (   0.1500000   0.2500000   0.2500000), wk =   0.0480000
        k(   21) = (   0.1500000   0.2500000   0.3500000), wk =   0.0960000
        k(   22) = (   0.1500000   0.2500000   0.4500000), wk =   0.0960000
        k(   23) = (   0.1500000   0.3500000   0.3500000), wk =   0.0480000
        k(   24) = (   0.1500000   0.3500000   0.4500000), wk =   0.0960000
        k(   25) = (   0.1500000   0.4500000   0.4500000), wk =   0.0480000
        k(   26) = (   0.2500000   0.2500000   0.2500000), wk =   0.0160000
        k(   27) = (   0.2500000   0.2500000   0.3500000), wk =   0.0480000
        k(   28) = (   0.2500000   0.2500000   0.4500000), wk =   0.0480000
        k(   29) = (   0.2500000   0.3500000   0.3500000), wk =   0.0480000
        k(   30) = (   0.2500000   0.3500000   0.4500000), wk =   0.0960000
        k(   31) = (   0.2500000   0.4500000   0.4500000), wk =   0.0480000
        k(   32) = (   0.3500000   0.3500000   0.3500000), wk =   0.0160000
        k(   33) = (   0.3500000   0.3500000   0.4500000), wk =   0.0480000
        k(   34) = (   0.3500000   0.4500000   0.4500000), wk =   0.0480000
        k(   35) = (   0.4500000   0.4500000   0.4500000), wk =   0.0160000

                       cryst. coord.
        k(    1) = (   0.0500000   0.0500000   0.0500000), wk =   0.0160000
        k(    2) = (   0.0500000   0.0500000   0.1500000), wk =   0.0480000
        k(    3) = (   0.0500000   0.0500000   0.2500000), wk =   0.0480000
        k(    4) = (   0.0500000   0.0500000   0.3500000), wk =   0.0480000
        k(    5) = (   0.0500000   0.0500000   0.4500000), wk =   0.0480000
        k(    6) = (   0.0500000   0.1500000   0.1500000), wk =   0.0480000
        k(    7) = (   0.0500000   0.1500000   0.2500000), wk =   0.0960000
        k(    8) = (   0.0500000   0.1500000   0.3500000), wk =   0.0960000
        k(    9) = (   0.0500000   0.1500000   0.4500000), wk =   0.0960000
        k(   10) = (   0.0500000   0.2500000   0.2500000), wk =   0.0480000
        k(   11) = (   0.0500000   0.2500000   0.3500000), wk =   0.0960000
        k(   12) = (   0.0500000   0.2500000   0.4500000), wk =   0.0960000
        k(   13) = (   0.0500000   0.3500000   0.3500000), wk =   0.0480000
        k(   14) = (   0.0500000   0.3500000   0.4500000), wk =   0.0960000
        k(   15) = (   0.0500000   0.4500000   0.4500000), wk =   0.0480000
        k(   16) = (   0.1500000   0.1500000   0.1500000), wk =   0.0160000
        k(   17) = (   0.1500000   0.1500000   0.2500000), wk =   0.0480000
        k(   18) = (   0.1500000   0.1500000   0.3500000), wk =   0.0480000
        k(   19) = (   0.1500000   0.1500000   0.4500000), wk =   0.0480000
        k(   20) = (   0.1500000   0.2500000   0.2500000), wk =   0.0480000
        k(   21) = (   0.1500000   0.2500000   0.3500000), wk =   0.0960000
        k(   22) = (   0.1500000   0.2500000   0.4500000), wk =   0.0960000
        k(   23) = (   0.1500000   0.3500000   0.3500000), wk =   0.0480000
        k(   24) = (   0.1500000   0.3500000   0.4500000), wk =   0.0960000
        k(   25) = (   0.1500000   0.4500000   0.4500000), wk =   0.0480000
        k(   26) = (   0.2500000   0.2500000   0.2500000), wk =   0.0160000
        k(   27) = (   0.2500000   0.2500000   0.3500000), wk =   0.0480000
        k(   28) = (   0.2500000   0.2500000   0.4500000), wk =   0.0480000
        k(   29) = (   0.2500000   0.3500000   0.3500000), wk =   0.0480000
        k(   30) = (   0.2500000   0.3500000   0.4500000), wk =   0.0960000
        k(   31) = (   0.2500000   0.4500000   0.4500000), wk =   0.0480000
        k(   32) = (   0.3500000   0.3500000   0.3500000), wk =   0.0160000
        k(   33) = (   0.3500000   0.3500000   0.4500000), wk =   0.0480000
        k(   34) = (   0.3500000   0.4500000   0.4500000), wk =   0.0480000
        k(   35) = (   0.4500000   0.4500000   0.4500000), wk =   0.0160000

     Dense  grid:    80989 G-vectors     FFT dimensions: (  54,  54,  54)

     Smooth grid:    20377 G-vectors     FFT dimensions: (  36,  36,  36)

     Dynamical RAM for                 wfc:       0.09 MB

     Dynamical RAM for     wfc (w. buffer):       1.71 MB

     Dynamical RAM for           str. fact:       0.37 MB

     Dynamical RAM for           local pot:       0.00 MB

     Dynamical RAM for          nlocal pot:       0.24 MB

     Dynamical RAM for                qrad:       6.42 MB

     Dynamical RAM for          rho,v,vnew:       0.77 MB

     Dynamical RAM for               rhoin:       0.26 MB

     Dynamical RAM for            rho*nmix:       1.98 MB

     Dynamical RAM for           G-vectors:       0.48 MB

     Dynamical RAM for          h,s,v(r/c):       0.10 MB

     Dynamical RAM for          <psi|beta>:       0.02 MB

     Dynamical RAM for                 psi:       0.18 MB

     Dynamical RAM for                hpsi:       0.18 MB

     Dynamical RAM for                spsi:       0.18 MB

     Dynamical RAM for      wfcinit/wfcrot:       0.23 MB

     Dynamical RAM for           addusdens:      12.91 MB

     Dynamical RAM for          addusforce:      13.17 MB

     Dynamical RAM for         addusstress:      13.62 MB

     Estimated static dynamical RAM per process >      11.41 MB

     Estimated max dynamical RAM per process >      27.01 MB

     Estimated total dynamical RAM >     520.37 MB

     Check: negative core charge=   -0.000002

     Initial potential from superposition of free atoms

     starting charge      37.9791, renormalised to      38.0000
     Starting wfcs are   27 randomized atomic wfcs
     Checking if some PAW data can be deallocated... 
       PAW data deallocated on   16 nodes for type:  1
       PAW data deallocated on    8 nodes for type:  3

     total cpu time spent up to now is        2.0 secs

     Self-consistent Calculation

     iteration #  1     ecut=    40.00 Ry     beta= 0.40
     Davidson diagonalization with overlap

---- Real-time Memory Report at c_bands before calling an iterative solver
            60 MiB given to the printing process from OS
             0 MiB allocation reported by mallinfo(arena+hblkhd)
         25472 MiB available memory on the node where the printing process lives
------------------
     ethr =  1.00E-02,  avg # of iterations =  2.9

     total cpu time spent up to now is        2.8 secs

     total energy              =    -628.09782398 Ry
     estimated scf accuracy    <       0.66023342 Ry

     iteration #  2     ecut=    40.00 Ry     beta= 0.40
     Davidson diagonalization with overlap

---- Real-time Memory Report at c_bands before calling an iterative solver
            64 MiB given to the printing process from OS
             0 MiB allocation reported by mallinfo(arena+hblkhd)
         25457 MiB available memory on the node where the printing process lives
------------------
     ethr =  1.74E-03,  avg # of iterations =  4.9

     total cpu time spent up to now is        4.2 secs

     total energy              =    -628.27830118 Ry
     estimated scf accuracy    <       0.05706984 Ry

     iteration #  3     ecut=    40.00 Ry     beta= 0.40
     Davidson diagonalization with overlap

---- Real-time Memory Report at c_bands before calling an iterative solver
            64 MiB given to the printing process from OS
             0 MiB allocation reported by mallinfo(arena+hblkhd)
         25457 MiB available memory on the node where the printing process lives
------------------
     ethr =  1.50E-04,  avg # of iterations = 10.7

     total cpu time spent up to now is        5.8 secs

     total energy              =    -628.28506093 Ry
     estimated scf accuracy    <       0.00911236 Ry

     iteration #  4     ecut=    40.00 Ry     beta= 0.40
     Davidson diagonalization with overlap

---- Real-time Memory Report at c_bands before calling an iterative solver
            64 MiB given to the printing process from OS
             0 MiB allocation reported by mallinfo(arena+hblkhd)
         25460 MiB available memory on the node where the printing process lives
------------------
     ethr =  2.40E-05,  avg # of iterations =  4.0

     total cpu time spent up to now is        6.9 secs

     total energy              =    -628.28639326 Ry
     estimated scf accuracy    <       0.00189075 Ry

     iteration #  5     ecut=    40.00 Ry     beta= 0.40
     Davidson diagonalization with overlap

---- Real-time Memory Report at c_bands before calling an iterative solver
            64 MiB given to the printing process from OS
             0 MiB allocation reported by mallinfo(arena+hblkhd)
         25455 MiB available memory on the node where the printing process lives
------------------
     ethr =  4.98E-06,  avg # of iterations =  5.6

     total cpu time spent up to now is        7.8 secs

     total energy              =    -628.28670646 Ry
     estimated scf accuracy    <       0.00011839 Ry

     iteration #  6     ecut=    40.00 Ry     beta= 0.40
     Davidson diagonalization with overlap

---- Real-time Memory Report at c_bands before calling an iterative solver
            64 MiB given to the printing process from OS
             0 MiB allocation reported by mallinfo(arena+hblkhd)
         25443 MiB available memory on the node where the printing process lives
------------------
     ethr =  3.12E-07,  avg # of iterations =  2.1

     total cpu time spent up to now is        8.5 secs

     total energy              =    -628.28674025 Ry
     estimated scf accuracy    <       0.00001128 Ry

     iteration #  7     ecut=    40.00 Ry     beta= 0.40
     Davidson diagonalization with overlap

---- Real-time Memory Report at c_bands before calling an iterative solver
            64 MiB given to the printing process from OS
             0 MiB allocation reported by mallinfo(arena+hblkhd)
         25445 MiB available memory on the node where the printing process lives
------------------
     ethr =  2.97E-08,  avg # of iterations =  4.0

     total cpu time spent up to now is        9.4 secs

     total energy              =    -628.28672922 Ry
     estimated scf accuracy    <       0.00002811 Ry

     iteration #  8     ecut=    40.00 Ry     beta= 0.40
     Davidson diagonalization with overlap

---- Real-time Memory Report at c_bands before calling an iterative solver
            65 MiB given to the printing process from OS
             0 MiB allocation reported by mallinfo(arena+hblkhd)
         25445 MiB available memory on the node where the printing process lives
------------------
     ethr =  2.97E-08,  avg # of iterations =  4.2

     total cpu time spent up to now is       10.4 secs

     total energy              =    -628.28673953 Ry
     estimated scf accuracy    <       0.00001784 Ry

     iteration #  9     ecut=    40.00 Ry     beta= 0.40
     Davidson diagonalization with overlap

---- Real-time Memory Report at c_bands before calling an iterative solver
            65 MiB given to the printing process from OS
             0 MiB allocation reported by mallinfo(arena+hblkhd)
         25451 MiB available memory on the node where the printing process lives
------------------
     ethr =  2.97E-08,  avg # of iterations =  2.0

     total cpu time spent up to now is       11.2 secs

     total energy              =    -628.28674087 Ry
     estimated scf accuracy    <       0.00000198 Ry

     iteration # 10     ecut=    40.00 Ry     beta= 0.40
     Davidson diagonalization with overlap

---- Real-time Memory Report at c_bands before calling an iterative solver
            65 MiB given to the printing process from OS
             0 MiB allocation reported by mallinfo(arena+hblkhd)
         25458 MiB available memory on the node where the printing process lives
------------------
     ethr =  5.21E-09,  avg # of iterations =  2.1

     total cpu time spent up to now is       11.9 secs

     total energy              =    -628.28674087 Ry
     estimated scf accuracy    <       0.00000049 Ry

     iteration # 11     ecut=    40.00 Ry     beta= 0.40
     Davidson diagonalization with overlap

---- Real-time Memory Report at c_bands before calling an iterative solver
            65 MiB given to the printing process from OS
             0 MiB allocation reported by mallinfo(arena+hblkhd)
         25477 MiB available memory on the node where the printing process lives
------------------
     ethr =  1.30E-09,  avg # of iterations =  3.3

     total cpu time spent up to now is       12.7 secs

     End of self-consistent calculation

          k = 0.0500 0.0500 0.0500 (  2550 PWs)   bands (ev):

   -30.3719 -20.0262 -11.7433 -11.7419 -11.7419  -9.8985  -9.5776  -9.5776
    -5.0741  -5.0741  -5.0616   4.4987   4.5669   4.5669   5.0086   5.0086
     5.0796   5.6818   5.7316   5.7316  10.3639  10.3640  10.7036

     occupation numbers 
     1.0000   1.0000   1.0000   1.0000   1.0000   1.0000   1.0000   1.0000
     1.0000   1.0000   1.0000   1.0000   1.0002   1.0002   1.0590   1.0590
     1.0796   0.0865   0.0492   0.0492   0.0000   0.0000   0.0000

          k = 0.0500 0.0500 0.1500 (  2573 PWs)   bands (ev):

   -30.3712 -20.0231 -11.9021 -11.7419 -11.7405  -9.8597  -9.5753  -9.4075
    -5.0755  -5.0690  -5.0448   4.3795   4.5452   4.5615   4.8701   4.9417
     5.0596   5.4139   5.6855   5.7012  10.5741  10.6002  11.0558

     occupation numbers 
     1.0000   1.0000   1.0000   1.0000   1.0000   1.0000   1.0000   1.0000
     1.0000   1.0000   1.0000   1.0000   1.0001   1.0002   1.0185   1.0367
     1.0750   0.6341   0.0831   0.0700   0.0000   0.0000   0.0000

          k = 0.0500 0.0500 0.2500 (  2566 PWs)   bands (ev):

   -30.3700 -20.0182 -12.1119 -11.7404 -11.7381  -9.8658  -9.5716  -9.1079
    -5.0670  -5.0607  -5.0283   4.2289   4.5019   4.5077   4.7118   4.8122
     4.9886   5.0320   5.6367   5.6546  10.9269  10.9787  11.7193

     occupation numbers 
     1.0000   1.0000   1.0000   1.0000   1.0000   1.0000   1.0000   1.0000
     1.0000   1.0000   1.0000   1.0000   1.0000   1.0001   1.0023   1.0094
     1.0521   1.0669   0.1367   0.1146   0.0000   0.0000   0.0000

          k = 0.0500 0.0500 0.3500 (  2570 PWs)   bands (ev):

   -30.3688 -20.0132 -12.2855 -11.7390 -11.7356  -9.8899  -9.5679  -8.8214
    -5.0524  -5.0522  -5.0182   4.0912   4.4191   4.4462   4.5211   4.5812
     4.8751   4.9151   5.5906   5.6107  11.2999  11.3725  12.2698

     occupation numbers 
     1.0000   1.0000   1.0000   1.0000   1.0000   1.0000   1.0000   1.0000
     1.0000   1.0000   1.0000   1.0000   1.0000   1.0000   1.0001   1.0002
     1.0195   1.0290   0.2068   0.1736   0.0000   0.0000   0.0000

          k = 0.0500 0.0500 0.4500 (  2571 PWs)   bands (ev):

   -30.3681 -20.0101 -12.3806 -11.7381 -11.7342  -9.9074  -9.5656  -8.6512
    -5.0472  -5.0387  -5.0162   4.0064   4.2772   4.3842   4.4047   4.5110
     4.8394   4.8737   5.5618   5.5845  11.5451  11.6324  12.5854

     occupation numbers 
     1.0000   1.0000   1.0000   1.0000   1.0000   1.0000   1.0000   1.0000
     1.0000   1.0000   1.0000   1.0000   1.0000   1.0000   1.0000   1.0001
     1.0131   1.0192   0.2608   0.2176   0.0000   0.0000   0.0000

          k = 0.0500 0.1500 0.1500 (  2569 PWs)   bands (ev):

   -30.3705 -20.0201 -11.9041 -11.9000 -11.7399  -9.7943  -9.4563  -9.3752
    -5.0887  -5.0664  -5.0244   4.2344   4.5318   4.5926   4.7135   4.8641
     5.1132   5.2942   5.5427   5.6621  10.7429  10.8422  11.3011

     occupation numbers 
     1.0000   1.0000   1.0000   1.0000   1.0000   1.0000   1.0000   1.0000
     1.0000   1.0000   1.0000   1.0000   1.0001   1.0003   1.0024   1.0173
     1.0833   0.9267   0.3010   0.1064   0.0000   0.0000   0.0000

          k = 0.0500 0.1500 0.2500 (  2572 PWs)   bands (ev):

   -30.3693 -20.0151 -12.1130 -11.9020 -11.7379  -9.7816  -9.4268  -9.1123
    -5.0922  -5.0590  -5.0126   4.0756   4.4841   4.5288   4.5595   4.7489
     4.9897   5.1389   5.4655   5.6080  11.0463  11.2374  11.7845

     occupation numbers 
     1.0000   1.0000   1.0000   1.0000   1.0000   1.0000   1.0000   1.0000
     1.0000   1.0000   1.0000   1.0000   1.0000   1.0001   1.0002   1.0040
     1.0525   1.0814   0.4922   0.1779   0.0000   0.0000   0.0000

          k = 0.0500 0.1500 0.3500 (  2572 PWs)   bands (ev):

   -30.3681 -20.0101 -12.2873 -11.9021 -11.7359  -9.7928  -9.4257  -8.8288
    -5.0832  -5.0509  -5.0138   3.9598   4.2765   4.4220   4.4924   4.5803
     4.8560   5.1425   5.4036   5.5573  11.4037  11.6319  12.3306

     occupation numbers 
     1.0000   1.0000   1.0000   1.0000   1.0000   1.0000   1.0000   1.0000
     1.0000   1.0000   1.0000   1.0000   1.0000   1.0000   1.0000   1.0002
     1.0159   1.0808   0.6624   0.2701   0.0000   0.0000   0.0000

          k = 0.0500 0.1500 0.4500 (  2568 PWs)   bands (ev):

   -30.3674 -20.0070 -12.3827 -11.9022 -11.7347  -9.8031  -9.4256  -8.6592
    -5.0697  -5.0433  -5.0250   3.9317   4.0382   4.3732   4.4530   4.4904
     4.8191   5.1602   5.3533   5.5271  11.6589  11.8907  12.6430

     occupation numbers 
     1.0000   1.0000   1.0000   1.0000   1.0000   1.0000   1.0000   1.0000
     1.0000   1.0000   1.0000   1.0000   1.0000   1.0000   1.0000   1.0000
     1.0103   1.0758   0.7952   0.3362   0.0000   0.0000   0.0000

          k = 0.0500 0.2500 0.2500 (  2579 PWs)   bands (ev):

   -30.3681 -20.0101 -12.1166 -12.1130 -11.7359  -9.7470  -9.1676  -9.0897
    -5.1111  -5.0547  -5.0102   3.8919   4.3179   4.4740   4.5493   4.6740
     4.8852   5.1177   5.3981   5.5434  11.2730  11.6951  11.9798

     occupation numbers 
     1.0000   1.0000   1.0000   1.0000   1.0000   1.0000   1.0000   1.0000
     1.0000   1.0000   1.0000   1.0000   1.0000   1.0000   1.0001   1.0013
     1.0217   1.0833   0.6777   0.2996   0.0000   0.0000   0.0000

          k = 0.0500 0.2500 0.3500 (  2578 PWs)   bands (ev):

   -30.3669 -20.0051 -12.2903 -12.1167 -11.7339  -9.7394  -9.1406  -8.8402
    -5.1141  -5.0577  -5.0160   3.7430   4.1096   4.4102   4.4966   4.5558
     4.8217   5.0919   5.4139   5.4818  11.5798  12.1052  12.2757

     occupation numbers 
     1.0000   1.0000   1.0000   1.0000   1.0000   1.0000   1.0000   1.0000
     1.0000   1.0000   1.0000   1.0000   1.0000   1.0000   1.0000   1.0001
     1.0106   1.0816   0.6342   0.4486   0.0000   0.0000   0.0000

          k = 0.0500 0.2500 0.4500 (  2567 PWs)   bands (ev):

   -30.3662 -20.0020 -12.3863 -12.1179 -11.7326  -9.7386  -9.1439  -8.6721
    -5.1023  -5.0739  -5.0187   3.6709   3.9266   4.3654   4.4678   4.4877
     4.8244   5.0782   5.4190   5.4454  11.8452  12.3239  12.4287

     occupation numbers 
     1.0000   1.0000   1.0000   1.0000   1.0000   1.0000   1.0000   1.0000
     1.0000   1.0000   1.0000   1.0000   1.0000   1.0000   1.0000   1.0000
     1.0110   1.0793   0.6200   0.5471   0.0000   0.0000   0.0000

          k = 0.0500 0.3500 0.3500 (  2569 PWs)   bands (ev):

   -30.3658 -20.0001 -12.2940 -12.2926 -11.7318  -9.7170  -8.8729  -8.8366
    -5.1318  -5.0815  -5.0133   3.5485   3.9584   4.3955   4.4093   4.4848
     4.8231   5.0227   5.4089   5.5265  11.7923  12.1877  12.5769

     occupation numbers 
     1.0000   1.0000   1.0000   1.0000   1.0000   1.0000   1.0000   1.0000
     1.0000   1.0000   1.0000   1.0000   1.0000   1.0000   1.0000   1.0000
     1.0108   1.0638   0.6479   0.3376   0.0000   0.0000   0.0000

          k = 0.0500 0.3500 0.4500 (  2569 PWs)   bands (ev):

   -30.3651 -19.9969 -12.3899 -12.2952 -11.7306  -9.7075  -8.8623  -8.6852
    -5.1306  -5.1099  -5.0097   3.4427   3.8267   4.3426   4.3864   4.4262
     4.8882   4.9852   5.3652   5.5803  11.9745  12.1367  12.7588

     occupation numbers 
     1.0000   1.0000   1.0000   1.0000   1.0000   1.0000   1.0000   1.0000
     1.0000   1.0000   1.0000   1.0000   1.0000   1.0000   1.0000   1.0000
     1.0223   1.0509   0.7649   0.2252   0.0000   0.0000   0.0000

          k = 0.0500 0.4500 0.4500 (  2563 PWs)   bands (ev):

   -30.3643 -19.9938 -12.3922 -12.3921 -11.7293  -9.6930  -8.6958  -8.6913
    -5.1436  -5.1360  -5.0039   3.3210   3.7314   4.2765   4.3632   4.3739
     4.9546   4.9857   5.3154   5.6586  11.8456  12.2535  12.8405

     occupation numbers 
     1.0000   1.0000   1.0000   1.0000   1.0000   1.0000   1.0000   1.0000
     1.0000   1.0000   1.0000   1.0000   1.0000   1.0000   1.0000   1.0000
     1.0407   1.0511   0.8835   0.1101   0.0000   0.0000   0.0000

          k = 0.1500 0.1500 0.1500 (  2575 PWs)   bands (ev):

   -30.3697 -20.0170 -11.9086 -11.8981 -11.8981  -9.6602  -9.3722  -9.3722
    -5.0900  -5.0900  -5.0013   4.0942   4.5625   4.5625   4.7038   4.7038
     5.1683   5.1920   5.5190   5.5190  10.9582  10.9582  11.4847

     occupation numbers 
     1.0000   1.0000   1.0000   1.0000   1.0000   1.0000   1.0000   1.0000
     1.0000   1.0000   1.0000   1.0000   1.0002   1.0002   1.0020   1.0020
     1.0726   1.0594   0.3554   0.3554   0.0000   0.0000   0.0000

          k = 0.1500 0.1500 0.2500 (  2578 PWs)   bands (ev):

   -30.3686 -20.0121 -12.1134 -11.9067 -11.8949  -9.6125  -9.3673  -9.1131
    -5.1002  -5.0923  -4.9919   3.9503   4.4586   4.5034   4.6039   4.6047
     4.9742   5.2167   5.4111   5.4784  11.2118  11.3326  11.8361

     occupation numbers 
     1.0000   1.0000   1.0000   1.0000   1.0000   1.0000   1.0000   1.0000
     1.0000   1.0000   1.0000   1.0000   1.0000   1.0000   1.0004   1.0004
     1.0472   1.0389   0.6419   0.4575   0.0000   0.0000   0.0000

          k = 0.1500 0.1500 0.3500 (  2575 PWs)   bands (ev):

   -30.3674 -20.0071 -12.2882 -11.9087 -11.8918  -9.6177  -9.3623  -8.8330
    -5.0947  -5.0918  -5.0009   3.8630   4.2769   4.3396   4.4109   4.5624
     4.9887   5.2056   5.3207   5.4333  11.5513  11.7136  12.2540

     occupation numbers 
     1.0000   1.0000   1.0000   1.0000   1.0000   1.0000   1.0000   1.0000
     1.0000   1.0000   1.0000   1.0000   1.0000   1.0000   1.0000   1.0002
     1.0521   1.0490   0.8720   0.5804   0.0000   0.0000   0.0000

          k = 0.1500 0.1500 0.4500 (  2559 PWs)   bands (ev):

   -30.3667 -20.0040 -12.3838 -11.9099 -11.8898  -9.6265  -9.3592  -8.6641
    -5.0962  -5.0716  -5.0214   3.8673   4.0008   4.2751   4.3434   4.5381
     5.0702   5.1924   5.2289   5.4036  11.8239  11.9500  12.5266

     occupation numbers 
     1.0000   1.0000   1.0000   1.0000   1.0000   1.0000   1.0000   1.0000
     1.0000   1.0000   1.0000   1.0000   1.0000   1.0000   1.0000   1.0001
     1.0776   1.0591   1.0262   0.6625   0.0000   0.0000   0.0000

          k = 0.1500 0.2500 0.2500 (  2567 PWs)   bands (ev):

   -30.3674 -20.0071 -12.1177 -12.1104 -11.8988  -9.5261  -9.1598  -9.0851
    -5.1230  -5.1038  -4.9908   3.8138   4.3090   4.4438   4.5321   4.6283
     4.8133   5.2510   5.3770   5.4032  11.4323  11.6437  11.9798

     occupation numbers 
     1.0000   1.0000   1.0000   1.0000   1.0000   1.0000   1.0000   1.0000
     1.0000   1.0000   1.0000   1.0000   1.0000   1.0000   1.0001   1.0006
     1.0096   0.9983   0.7342   0.6636   0.0000   0.0000   0.0000

          k = 0.1500 0.2500 0.3500 (  2570 PWs)   bands (ev):

   -30.3662 -20.0022 -12.2897 -12.1148 -11.8971  -9.5128  -9.1295  -8.8394
    -5.1318  -5.1102  -5.0086   3.7241   4.1166   4.3364   4.3750   4.5781
     4.8608   5.2036   5.3439   5.4067  11.7209  11.9911  12.1740

     occupation numbers 
     1.0000   1.0000   1.0000   1.0000   1.0000   1.0000   1.0000   1.0000
     1.0000   1.0000   1.0000   1.0000   1.0000   1.0000   1.0000   1.0002
     1.0167   1.0507   0.8182   0.6540   0.0000   0.0000   0.0000

          k = 0.1500 0.2500 0.4500 (  2565 PWs)   bands (ev):

   -30.3655 -19.9991 -12.3857 -12.1154 -11.8959  -9.5116  -9.1293  -8.6721
    -5.1314  -5.1083  -5.0311   3.7066   3.9088   4.2535   4.3138   4.5612
     4.9581   5.1323   5.3105   5.4171  11.9970  12.2012  12.2817

     occupation numbers 
     1.0000   1.0000   1.0000   1.0000   1.0000   1.0000   1.0000   1.0000
     1.0000   1.0000   1.0000   1.0000   1.0000   1.0000   1.0000   1.0002
     1.0418   1.0824   0.8938   0.6253   0.0000   0.0000   0.0000

          k = 0.1500 0.3500 0.3500 (  2564 PWs)   bands (ev):

   -30.3651 -19.9973 -12.2929 -12.2895 -11.8945  -9.4847  -8.8688  -8.8301
    -5.1544  -5.1292  -5.0291   3.6025   3.9545   4.3177   4.3240   4.4467
     4.8696   5.1802   5.2732   5.5274  11.8741  12.1507  12.2928

     occupation numbers 
     1.0000   1.0000   1.0000   1.0000   1.0000   1.0000   1.0000   1.0000
     1.0000   1.0000   1.0000   1.0000   1.0000   1.0000   1.0000   1.0000
     1.0184   1.0668   0.9644   0.3355   0.0000   0.0000   0.0000

          k = 0.1500 0.3500 0.4500 (  2556 PWs)   bands (ev):

   -30.3643 -19.9942 -12.3876 -12.2922 -11.8929  -9.4749  -8.8542  -8.6804
    -5.1595  -5.1443  -5.0468   3.5416   3.8142   4.2665   4.2838   4.3998
     4.9563   5.1407   5.2332   5.5843  11.9386  12.2269  12.4761

     occupation numbers 
     1.0000   1.0000   1.0000   1.0000   1.0000   1.0000   1.0000   1.0000
     1.0000   1.0000   1.0000   1.0000   1.0000   1.0000   1.0000   1.0000
     1.0412   1.0811   1.0213   0.2180   0.0000   0.0000   0.0000

          k = 0.1500 0.4500 0.4500 (  2557 PWs)   bands (ev):

   -30.3636 -19.9912 -12.3890 -12.3886 -11.8910  -9.4602  -8.6883  -8.6834
    -5.1729  -5.1678  -5.0587   3.4512   3.7239   4.2612   4.2642   4.2884
     5.0322   5.1542   5.1711   5.6658  11.7758  12.4078  12.5389

     occupation numbers 
     1.0000   1.0000   1.0000   1.0000   1.0000   1.0000   1.0000   1.0000
     1.0000   1.0000   1.0000   1.0000   1.0000   1.0000   1.0000   1.0000
     1.0669   1.0778   1.0714   0.1024   0.0000   0.0000   0.0000

          k = 0.2500 0.2500 0.2500 (  2560 PWs)   bands (ev):

   -30.3662 -20.0023 -12.1251 -12.1062 -12.1062  -9.2854  -9.0777  -9.0777
    -5.1425  -5.1425  -4.9997   3.7287   4.2943   4.2943   4.5164   4.6232
     4.6232   5.3277   5.3277   5.3820  11.7044  11.7044  11.9999

     occupation numbers 
     1.0000   1.0000   1.0000   1.0000   1.0000   1.0000   1.0000   1.0000
     1.0000   1.0000   1.0000   1.0000   1.0000   1.0000   1.0001   1.0005
     1.0005   0.8562   0.8562   0.7210   0.0000   0.0000   0.0000

          k = 0.2500 0.2500 0.3500 (  2551 PWs)   bands (ev):

   -30.3651 -19.9975 -12.2887 -12.1201 -12.1020  -9.2354  -9.0701  -8.8376
    -5.1620  -5.1581  -5.0310   3.6880   4.1374   4.1828   4.3098   4.6265
     4.6561   5.2976   5.3251   5.4388  11.9149  11.9505  12.0506

     occupation numbers 
     1.0000   1.0000   1.0000   1.0000   1.0000   1.0000   1.0000   1.0000
     1.0000   1.0000   1.0000   1.0000   1.0000   1.0000   1.0000   1.0006
     1.0009   0.9200   0.8621   0.5653   0.0000   0.0000   0.0000

          k = 0.2500 0.2500 0.4500 (  2556 PWs)   bands (ev):

   -30.3643 -19.9945 -12.3848 -12.1214 -12.0994  -9.2316  -9.0654  -8.6723
    -5.1742  -5.1530  -5.0647   3.7155   3.8820   4.1256   4.2612   4.6290
     4.7029   5.2759   5.3231   5.4594  12.0660  12.0972  12.2245

     occupation numbers 
     1.0000   1.0000   1.0000   1.0000   1.0000   1.0000   1.0000   1.0000
     1.0000   1.0000   1.0000   1.0000   1.0000   1.0000   1.0000   1.0006
     1.0020   0.9598   0.8666   0.5086   0.0000   0.0000   0.0000

          k = 0.2500 0.3500 0.3500 (  2556 PWs)   bands (ev):

   -30.3639 -19.9927 -12.2911 -12.2844 -12.1075  -9.1580  -8.8598  -8.8195
    -5.1911  -5.1869  -5.0724   3.6623   3.9829   4.1970   4.2074   4.4470
     4.6728   5.3167   5.3506   5.5372  11.8956  12.0355  12.0514

     occupation numbers 
     1.0000   1.0000   1.0000   1.0000   1.0000   1.0000   1.0000   1.0000
     1.0000   1.0000   1.0000   1.0000   1.0000   1.0000   1.0000   1.0000
     1.0012   0.8806   0.8019   0.3133   0.0000   0.0000   0.0000

          k = 0.2500 0.3500 0.4500 (  2561 PWs)   bands (ev):

   -30.3632 -19.9898 -12.3840 -12.2872 -12.1056  -9.1460  -8.8397  -8.6726
    -5.2072  -5.1944  -5.1096   3.6792   3.8012   4.1280   4.2055   4.4015
     4.6972   5.3217   5.3649   5.5944  11.8410  12.0689  12.1534

     occupation numbers 
     1.0000   1.0000   1.0000   1.0000   1.0000   1.0000   1.0000   1.0000
     1.0000   1.0000   1.0000   1.0000   1.0000   1.0000   1.0000   1.0000
     1.0018   0.8698   0.7657   0.2002   0.0000   0.0000   0.0000

          k = 0.2500 0.4500 0.4500 (  2550 PWs)   bands (ev):

   -30.3625 -19.9869 -12.3839 -12.3830 -12.1031  -9.1294  -8.6761  -8.6706
    -5.2203  -5.2190  -5.1447   3.6543   3.7029   4.1548   4.1567   4.2852
     4.7149   5.3646   5.3759   5.6787  11.6633  12.1060  12.1072

     occupation numbers 
     1.0000   1.0000   1.0000   1.0000   1.0000   1.0000   1.0000   1.0000
     1.0000   1.0000   1.0000   1.0000   1.0000   1.0000   1.0000   1.0000
     1.0024   0.7665   0.7371   0.0895   0.0000   0.0000   0.0000

          k = 0.3500 0.3500 0.3500 (  2542 PWs)   bands (ev):

   -30.3627 -19.9882 -12.2932 -12.2793 -12.2793  -8.9058  -8.8087  -8.8087
    -5.2278  -5.2278  -5.1306   3.6886   3.9852   4.1036   4.1036   4.4524
     4.4524   5.4476   5.4476   5.5803  11.8087  11.8933  11.8933

     occupation numbers 
     1.0000   1.0000   1.0000   1.0000   1.0000   1.0000   1.0000   1.0000
     1.0000   1.0000   1.0000   1.0000   1.0000   1.0000   1.0000   1.0000
     1.0000   0.5410   0.5410   0.2253   0.0000   0.0000   0.0000

          k = 0.3500 0.3500 0.4500 (  2551 PWs)   bands (ev):

   -30.3620 -19.9854 -12.3803 -12.2873 -12.2761  -8.8722  -8.8020  -8.6648
    -5.2505  -5.2404  -5.1782   3.6929   3.8551   4.0563   4.1270   4.3746
     4.4557   5.4719   5.5255   5.6281  11.7161  11.8212  11.8403

     occupation numbers 
     1.0000   1.0000   1.0000   1.0000   1.0000   1.0000   1.0000   1.0000
     1.0000   1.0000   1.0000   1.0000   1.0000   1.0000   1.0000   1.0000
     1.0000   0.4748   0.3399   0.1481   0.0000   0.0000   0.0000

          k = 0.3500 0.4500 0.4500 (  2538 PWs)   bands (ev):

   -30.3613 -19.9826 -12.3787 -12.3774 -12.2785  -8.8304  -8.6635  -8.6574
    -5.2692  -5.2676  -5.2287   3.6286   3.8719   4.0708   4.0754   4.2888
     4.4266   5.5641   5.5728   5.6925  11.5527  11.7152  11.7207

     occupation numbers 
     1.0000   1.0000   1.0000   1.0000   1.0000   1.0000   1.0000   1.0000
     1.0000   1.0000   1.0000   1.0000   1.0000   1.0000   1.0000   1.0000
     1.0000   0.2564   0.2393   0.0771   0.0000   0.0000   0.0000

          k = 0.4500 0.4500 0.4500 (  2539 PWs)   bands (ev):

   -30.3606 -19.9800 -12.3761 -12.3739 -12.3739  -8.6616  -8.6491  -8.6491
    -5.2969  -5.2969  -5.2824   3.5536   3.9900   4.0335   4.0335   4.2908
     4.2908   5.6831   5.6831   5.7071  11.4774  11.4971  11.4971

     occupation numbers 
     1.0000   1.0000   1.0000   1.0000   1.0000   1.0000   1.0000   1.0000
     1.0000   1.0000   1.0000   1.0000   1.0000   1.0000   1.0000   1.0000
     1.0000   0.0854   0.0854   0.0655   0.0000   0.0000   0.0000

     the Fermi energy is     5.5005 ev

!    total energy              =    -628.28674101 Ry
     estimated scf accuracy    <          6.1E-09 Ry
     smearing contrib. (-TS)   =      -0.00194856 Ry
     internal energy E=F+TS    =    -628.28479246 Ry

     The total energy is F=E-TS. E is the sum of the following terms:
     one-electron contribution =     -64.48378730 Ry
     hartree contribution      =      52.32543234 Ry
     xc contribution           =     -53.70765244 Ry
     ewald contribution        =    -166.45952522 Ry
     one-center paw contrib.   =    -395.95925984 Ry
      -> PAW hartree energy AE =      28.32935740 Ry
      -> PAW hartree energy PS =     -28.21276902 Ry
      -> PAW xc energy AE      =    -387.73032414 Ry
      -> PAW xc energy PS      =      19.01810940 Ry
      -> total E_H with PAW    =      52.44202072 Ry
      -> total E_XC with PAW   =    -422.41986719 Ry

     convergence has been achieved in  11 iterations

     Forces acting on atoms (cartesian axes, Ry/au):

     atom    1 type  1   force =     0.00000000    0.00000000    0.00000000
     atom    2 type  2   force =     0.00000000    0.00000000    0.00000000
     atom    3 type  3   force =     0.00000000    0.00000000    0.00000000
     atom    4 type  3   force =     0.00000000    0.00000000    0.00000000
     atom    5 type  3   force =     0.00000000    0.00000000    0.00000000
     The non-local contrib.  to forces
     atom    1 type  1   force =     0.00000000    0.00000000    0.00000000
     atom    2 type  2   force =     0.00000000    0.00000000    0.00000000
     atom    3 type  3   force =     0.00000000    0.00000000    0.00000000
     atom    4 type  3   force =     0.00000000    0.00000000    0.00000000
     atom    5 type  3   force =     0.00000000    0.00000000    0.00000000
     The ionic contribution  to forces
     atom    1 type  1   force =    -0.00000000   -0.00000000   -0.00000000
     atom    2 type  2   force =     0.00000000    0.00000000    0.00000000
     atom    3 type  3   force =     0.00000000    0.00000000   -0.00000000
     atom    4 type  3   force =     0.00000000   -0.00000000    0.00000000
     atom    5 type  3   force =    -0.00000000    0.00000000    0.00000000
     The local contribution  to forces
     atom    1 type  1   force =    -0.00000000   -0.00000000   -0.00000000
     atom    2 type  2   force =     0.00000000    0.00000000    0.00000000
     atom    3 type  3   force =     0.00000000    0.00000000   -0.00000000
     atom    4 type  3   force =     0.00000000    0.00000000    0.00000000
     atom    5 type  3   force =     0.00000000    0.00000000    0.00000000
     The core correction contribution to forces
     atom    1 type  1   force =     0.00000000   -0.00000000    0.00000000
     atom    2 type  2   force =    -0.00000000    0.00000000    0.00000000
     atom    3 type  3   force =     0.00000000   -0.00000000    0.00000000
     atom    4 type  3   force =     0.00000000   -0.00000000    0.00000000
     atom    5 type  3   force =    -0.00000000    0.00000000    0.00000000
     The Hubbard contrib.    to forces
     atom    1 type  1   force =     0.00000000    0.00000000    0.00000000
     atom    2 type  2   force =     0.00000000    0.00000000    0.00000000
     atom    3 type  3   force =     0.00000000    0.00000000    0.00000000
     atom    4 type  3   force =     0.00000000    0.00000000    0.00000000
     atom    5 type  3   force =     0.00000000    0.00000000    0.00000000
     The SCF correction term to forces
     atom    1 type  1   force =    -0.00000000    0.00000000   -0.00000000
     atom    2 type  2   force =     0.00000000   -0.00000000   -0.00000000
     atom    3 type  3   force =    -0.00000000    0.00000000   -0.00000000
     atom    4 type  3   force =     0.00000000   -0.00000000   -0.00000000
     atom    5 type  3   force =    -0.00000000   -0.00000000   -0.00000000

     Total force =     0.000000     Total SCF correction =     0.000000


     Computing stress (Cartesian axis) and pressure

          total   stress  (Ry/bohr**3)                   (kbar)     P=      -65.68
  -0.00044651   0.00000000   0.00000000          -65.68        0.00        0.00
   0.00000000  -0.00044651   0.00000000            0.00      -65.68        0.00
   0.00000000   0.00000000  -0.00044651            0.00        0.00      -65.68

     kinetic stress (kbar)  14362.07      0.00      0.00
                                0.00  14362.07      0.00
                                0.00      0.00  14362.07

     local   stress (kbar)  -6185.39      0.00     -0.00
                                0.00  -6185.39     -0.00
                               -0.00     -0.00  -6185.39

     nonloc. stress (kbar)   4519.35      0.00      0.00
                                0.00   4519.35      0.00
                                0.00      0.00   4519.35

     hartree stress (kbar)   4272.93     -0.00      0.00
                               -0.00   4272.93      0.00
                                0.00      0.00   4272.93

     exc-cor stress (kbar)    451.51     -0.00      0.00
                               -0.00    451.51      0.00
                                0.00      0.00    451.51

     corecor stress (kbar)  -3892.95      0.00      0.00
                                0.00  -3892.95      0.00
                                0.00      0.00  -3892.95

     ewald   stress (kbar) -13593.20     -0.00     -0.00
                               -0.00 -13593.20     -0.00
                               -0.00     -0.00 -13593.20

     hubbard stress (kbar)      0.00      0.00      0.00
                                0.00      0.00      0.00
                                0.00      0.00      0.00

     DFT-D   stress (kbar)      0.00      0.00      0.00
                                0.00      0.00      0.00
                                0.00      0.00      0.00

     XDM     stress (kbar)      0.00      0.00      0.00
                                0.00      0.00      0.00
                                0.00      0.00      0.00

     dft-nl  stress (kbar)      0.00      0.00      0.00
                                0.00      0.00      0.00
                                0.00      0.00      0.00

     TS-vdW  stress (kbar)      0.00      0.00      0.00
                                0.00      0.00      0.00
                                0.00      0.00      0.00

     MDB     stress (kbar)      0.00      0.00      0.00
                                0.00      0.00      0.00
                                0.00      0.00      0.00

     3D-RISM stress (kbar)      0.00      0.00      0.00
                                0.00      0.00      0.00
                                0.00      0.00      0.00


     Writing all to output data dir ./out/BCO.save/ :
     XML data file, charge density, pseudopotentials, collected wavefunctions

     init_run     :      1.37s CPU      1.51s WALL (       1 calls)
     electrons    :     10.17s CPU     10.71s WALL (       1 calls)
     forces       :      0.21s CPU      0.21s WALL (       1 calls)
     stress       :      0.78s CPU      0.78s WALL (       1 calls)

     Called by init_run:
     wfcinit      :      0.60s CPU      0.63s WALL (       1 calls)
     wfcinit:atom :      0.00s CPU      0.00s WALL (      18 calls)
     wfcinit:wfcr :      0.59s CPU      0.61s WALL (      18 calls)
     potinit      :      0.27s CPU      0.32s WALL (       1 calls)
     hinit0       :      0.27s CPU      0.29s WALL (       1 calls)

     Called by electrons:
     c_bands      :      7.26s CPU      7.57s WALL (      11 calls)
     sum_band     :      1.58s CPU      1.76s WALL (      11 calls)
     v_of_rho     :      0.14s CPU      0.15s WALL (      12 calls)
     v_h          :      0.01s CPU      0.01s WALL (      12 calls)
     v_xc         :      0.17s CPU      0.18s WALL (      14 calls)
     newd         :      0.71s CPU      0.74s WALL (      12 calls)
     PAW_pot      :      0.65s CPU      0.70s WALL (      12 calls)
     mix_rho      :      0.02s CPU      0.02s WALL (      11 calls)

     Called by c_bands:
     init_us_2    :      0.06s CPU      0.06s WALL (     450 calls)
     init_us_2:cp :      0.06s CPU      0.06s WALL (     450 calls)
     cegterg      :      6.19s CPU      6.49s WALL (     198 calls)

     Called by sum_band:
     sum_band:wei :      0.01s CPU      0.01s WALL (      11 calls)
     sum_band:loo :      0.88s CPU      1.04s WALL (      11 calls)
     sum_band:buf :      0.01s CPU      0.01s WALL (     198 calls)
     sum_band:ini :      0.02s CPU      0.03s WALL (     198 calls)
     sum_band:cal :      0.21s CPU      0.26s WALL (     198 calls)
     sum_band:bec :      0.01s CPU      0.01s WALL (     198 calls)
     addusdens    :      0.52s CPU      0.53s WALL (      11 calls)
                                        0.00s GPU  (      11 calls)
     addusd:skk   :      0.00s CPU      0.00s WALL (      33 calls)
                                        0.00s GPU  (      33 calls)

     Called by *egterg:
     cdiaghg      :      0.69s CPU      0.72s WALL (    1031 calls)
     cegterg:over :      0.55s CPU      0.57s WALL (     833 calls)
     cegterg:upda :      0.20s CPU      0.21s WALL (     833 calls)
     cegterg:last :      0.48s CPU      0.50s WALL (     442 calls)
     h_psi        :      3.91s CPU      4.12s WALL (    1049 calls)
     s_psi        :      0.43s CPU      0.44s WALL (    1049 calls)
     g_psi        :      0.01s CPU      0.01s WALL (     833 calls)

     Called by h_psi:
     h_psi:calbec :      0.55s CPU      0.57s WALL (    1049 calls)
     vloc_psi     :      2.93s CPU      3.09s WALL (    1049 calls)
     add_vuspsi   :      0.43s CPU      0.45s WALL (    1049 calls)

     General routines
     calbec       :      1.04s CPU      1.11s WALL (    1337 calls)
     fft          :      0.23s CPU      0.24s WALL (     179 calls)
     ffts         :      0.17s CPU      0.18s WALL (      23 calls)
     fftw         :      3.27s CPU      3.53s WALL (   30240 calls)
     interpolate  :      0.17s CPU      0.19s WALL (      12 calls)

     Parallel routines

     PAW routines
     PAW_pot      :      0.65s CPU      0.70s WALL (      12 calls)
     PAW_symme    :      0.02s CPU      0.02s WALL (      23 calls)

     PWSCF        :     13.21s CPU     14.03s WALL


   This run was terminated on:  18:54:25   7Apr2025            

=------------------------------------------------------------------------------=
   JOB DONE.
=------------------------------------------------------------------------------=
