
     Program PWSCF v.7.3 starts on  7Apr2025 at 18:54:51 

     This program is part of the open-source Quantum ESPRESSO suite
     for quantum simulation of materials; please cite
         "P. Giannozzi et al., J. Phys.:Condens. Matter 21 395502 (2009);
         "P. Giannozzi et al., J. Phys.:Condens. Matter 29 465901 (2017);
         "P. Giannozzi et al., J. Chem. Phys. 152 154105 (2020);
          URL http://www.quantum-espresso.org", 
     in publications or presentations arising from this work. More details at
     http://www.quantum-espresso.org/quote

     Parallel version (MPI), running on    20 processors

     MPI processes distributed on     1 nodes
     26271 MiB available memory on the printing compute node when the environment starts

     Waiting for input...
     Reading input from standard input

     Current dimensions of program PWSCF are:
     Max number of different atomic species (ntypx) = 10
     Max number of k-points (npk) = 120000
     Max angular momentum in pseudopotentials (lmaxx) =  4
     file Ba.pbesol-spn-kjpaw_psl.1.0.0.UPF: wavefunction(s)  5S 6S renormalized
     file O.pbesol-n-kjpaw_psl.0.1.UPF: wavefunction(s)  2P renormalized
     Message from routine setup:
     using ibrav=0 with symmetry is DISCOURAGED, use correct ibrav instead

     K-points division:     npool     =       2
     R & G space division:  proc/nbgrp/npool/nimage =      10
     Subspace diagonalization in iterative solution of the eigenvalue problem:
     a serial algorithm will be used


     Parallelization info
     --------------------
     sticks:   dense  smooth     PW     G-vecs:    dense   smooth      PW
     Min         224      88     27                 8096     2036     339
     Max         225      90     28                 8101     2039     342
     Sum        2249     889    277                80989    20377    3407

     Using Slab Decomposition



     bravais-lattice index     =            0
     lattice parameter (alat)  =       8.4365  a.u.
     unit-cell volume          =     600.4730 (a.u.)^3
     number of atoms/cell      =            5
     number of atomic types    =            3
     number of electrons       =        38.00
     number of Kohn-Sham states=           23
     kinetic-energy cutoff     =      40.0000  Ry
     charge density cutoff     =     400.0000  Ry
     scf convergence threshold =      1.0E-07
     mixing beta               =       0.4000
     number of iterations used =            8  plain     mixing
     Exchange-correlation= SLA  PW   PSX  PSC
                           (   1   4  10   8   0   0   0)

     celldm(1)=   8.436542  celldm(2)=   0.000000  celldm(3)=   0.000000
     celldm(4)=   0.000000  celldm(5)=   0.000000  celldm(6)=   0.000000

     crystal axes: (cart. coord. in units of alat)
               a(1) = (   1.000000   0.000000   0.000000 )  
               a(2) = (   0.000000   1.000000   0.000000 )  
               a(3) = (   0.000000   0.000000   1.000000 )  

     reciprocal axes: (cart. coord. in units 2 pi/alat)
               b(1) = (  1.000000  0.000000  0.000000 )  
               b(2) = (  0.000000  1.000000  0.000000 )  
               b(3) = (  0.000000  0.000000  1.000000 )  


     PseudoPot. # 1 for Ba read from file:
     ./pseudo/Ba.pbesol-spn-kjpaw_psl.1.0.0.UPF
     MD5 check sum: f28c4a63d325c1a0d00fd3a4f19b8d73
     Pseudo is Projector augmented-wave + core cor, Zval = 10.0
     Generated using "atomic" code by A. Dal Corso  v.6.0 svn rev. 13079
     Shape of augmentation charge: PSQ
     Using radial grid of 1251 points,  7 beta functions with: 
                l(1) =   0
                l(2) =   0
                l(3) =   0
                l(4) =   1
                l(5) =   1
                l(6) =   2
                l(7) =   2
     Q(r) pseudized with 0 coefficients 


     PseudoPot. # 2 for Ca read from file:
     ./pseudo/ca_pbesol_v1.uspp.F.UPF
     MD5 check sum: 0533207b58cddeaa036efa5b63902087
     Pseudo is Ultrasoft + core correction, Zval = 10.0
     Generated by new atomic code, or converted to UPF format
     Using radial grid of  845 points,  6 beta functions with: 
                l(1) =   0
                l(2) =   0
                l(3) =   1
                l(4) =   1
                l(5) =   2
                l(6) =   2
     Q(r) pseudized with  8 coefficients,  rinner =    1.500   1.500   1.500
                                                       1.500   1.500

     PseudoPot. # 3 for O  read from file:
     ./pseudo/O.pbesol-n-kjpaw_psl.0.1.UPF
     MD5 check sum: 81d73d1479e654e5638b0319f0d6c2c7
     Pseudo is Projector augmented-wave + core cor, Zval =  6.0
     Generated using "atomic" code by A. Dal Corso  v.6.0 svn rev. 13079
     Shape of augmentation charge: BESSEL
     Using radial grid of 1095 points,  4 beta functions with: 
                l(1) =   0
                l(2) =   0
                l(3) =   1
                l(4) =   1
     Q(r) pseudized with 0 coefficients 


     atomic species   valence    mass     pseudopotential
     Ba               10.00   137.32700     Ba( 1.00)
     Ca               10.00    40.07800     Ca( 1.00)
     O                 6.00    15.99940     O ( 1.00)

     48 Sym. Ops., with inversion, found


                                    s                        frac. trans.

      isym =  1     identity                                     

 cryst.   s( 1) = (     1          0          0      )
                  (     0          1          0      )
                  (     0          0          1      )

 cart.    s( 1) = (  1.0000000  0.0000000  0.0000000 )
                  (  0.0000000  1.0000000  0.0000000 )
                  (  0.0000000  0.0000000  1.0000000 )


      isym =  2     180 deg rotation - cart. axis [0,0,1]        

 cryst.   s( 2) = (    -1          0          0      )
                  (     0         -1          0      )
                  (     0          0          1      )

 cart.    s( 2) = ( -1.0000000  0.0000000  0.0000000 )
                  (  0.0000000 -1.0000000  0.0000000 )
                  (  0.0000000  0.0000000  1.0000000 )


      isym =  3     180 deg rotation - cart. axis [0,1,0]        

 cryst.   s( 3) = (    -1          0          0      )
                  (     0          1          0      )
                  (     0          0         -1      )

 cart.    s( 3) = ( -1.0000000  0.0000000  0.0000000 )
                  (  0.0000000  1.0000000  0.0000000 )
                  (  0.0000000  0.0000000 -1.0000000 )


      isym =  4     180 deg rotation - cart. axis [1,0,0]        

 cryst.   s( 4) = (     1          0          0      )
                  (     0         -1          0      )
                  (     0          0         -1      )

 cart.    s( 4) = (  1.0000000  0.0000000  0.0000000 )
                  (  0.0000000 -1.0000000  0.0000000 )
                  (  0.0000000  0.0000000 -1.0000000 )


      isym =  5     180 deg rotation - cart. axis [1,1,0]        

 cryst.   s( 5) = (     0          1          0      )
                  (     1          0          0      )
                  (     0          0         -1      )

 cart.    s( 5) = (  0.0000000  1.0000000  0.0000000 )
                  (  1.0000000  0.0000000  0.0000000 )
                  (  0.0000000  0.0000000 -1.0000000 )


      isym =  6     180 deg rotation - cart. axis [1,-1,0]       

 cryst.   s( 6) = (     0         -1          0      )
                  (    -1          0          0      )
                  (     0          0         -1      )

 cart.    s( 6) = (  0.0000000 -1.0000000  0.0000000 )
                  ( -1.0000000  0.0000000  0.0000000 )
                  (  0.0000000  0.0000000 -1.0000000 )


      isym =  7      90 deg rotation - cart. axis [0,0,-1]       

 cryst.   s( 7) = (     0         -1          0      )
                  (     1          0          0      )
                  (     0          0          1      )

 cart.    s( 7) = (  0.0000000  1.0000000  0.0000000 )
                  ( -1.0000000  0.0000000  0.0000000 )
                  (  0.0000000  0.0000000  1.0000000 )


      isym =  8      90 deg rotation - cart. axis [0,0,1]        

 cryst.   s( 8) = (     0          1          0      )
                  (    -1          0          0      )
                  (     0          0          1      )

 cart.    s( 8) = (  0.0000000 -1.0000000  0.0000000 )
                  (  1.0000000  0.0000000  0.0000000 )
                  (  0.0000000  0.0000000  1.0000000 )


      isym =  9     180 deg rotation - cart. axis [1,0,1]        

 cryst.   s( 9) = (     0          0          1      )
                  (     0         -1          0      )
                  (     1          0          0      )

 cart.    s( 9) = (  0.0000000  0.0000000  1.0000000 )
                  (  0.0000000 -1.0000000  0.0000000 )
                  (  1.0000000  0.0000000  0.0000000 )


      isym = 10     180 deg rotation - cart. axis [-1,0,1]       

 cryst.   s(10) = (     0          0         -1      )
                  (     0         -1          0      )
                  (    -1          0          0      )

 cart.    s(10) = (  0.0000000  0.0000000 -1.0000000 )
                  (  0.0000000 -1.0000000  0.0000000 )
                  ( -1.0000000  0.0000000  0.0000000 )


      isym = 11      90 deg rotation - cart. axis [0,1,0]        

 cryst.   s(11) = (     0          0         -1      )
                  (     0          1          0      )
                  (     1          0          0      )

 cart.    s(11) = (  0.0000000  0.0000000  1.0000000 )
                  (  0.0000000  1.0000000  0.0000000 )
                  ( -1.0000000  0.0000000  0.0000000 )


      isym = 12      90 deg rotation - cart. axis [0,-1,0]       

 cryst.   s(12) = (     0          0          1      )
                  (     0          1          0      )
                  (    -1          0          0      )

 cart.    s(12) = (  0.0000000  0.0000000 -1.0000000 )
                  (  0.0000000  1.0000000  0.0000000 )
                  (  1.0000000  0.0000000  0.0000000 )


      isym = 13     180 deg rotation - cart. axis [0,1,1]        

 cryst.   s(13) = (    -1          0          0      )
                  (     0          0          1      )
                  (     0          1          0      )

 cart.    s(13) = ( -1.0000000  0.0000000  0.0000000 )
                  (  0.0000000  0.0000000  1.0000000 )
                  (  0.0000000  1.0000000  0.0000000 )


      isym = 14     180 deg rotation - cart. axis [0,1,-1]       

 cryst.   s(14) = (    -1          0          0      )
                  (     0          0         -1      )
                  (     0         -1          0      )

 cart.    s(14) = ( -1.0000000  0.0000000  0.0000000 )
                  (  0.0000000  0.0000000 -1.0000000 )
                  (  0.0000000 -1.0000000  0.0000000 )


      isym = 15      90 deg rotation - cart. axis [-1,0,0]       

 cryst.   s(15) = (     1          0          0      )
                  (     0          0         -1      )
                  (     0          1          0      )

 cart.    s(15) = (  1.0000000  0.0000000  0.0000000 )
                  (  0.0000000  0.0000000  1.0000000 )
                  (  0.0000000 -1.0000000  0.0000000 )


      isym = 16      90 deg rotation - cart. axis [1,0,0]        

 cryst.   s(16) = (     1          0          0      )
                  (     0          0          1      )
                  (     0         -1          0      )

 cart.    s(16) = (  1.0000000  0.0000000  0.0000000 )
                  (  0.0000000  0.0000000 -1.0000000 )
                  (  0.0000000  1.0000000  0.0000000 )


      isym = 17     120 deg rotation - cart. axis [-1,-1,-1]     

 cryst.   s(17) = (     0          0          1      )
                  (     1          0          0      )
                  (     0          1          0      )

 cart.    s(17) = (  0.0000000  1.0000000  0.0000000 )
                  (  0.0000000  0.0000000  1.0000000 )
                  (  1.0000000  0.0000000  0.0000000 )


      isym = 18     120 deg rotation - cart. axis [-1,1,1]       

 cryst.   s(18) = (     0          0         -1      )
                  (    -1          0          0      )
                  (     0          1          0      )

 cart.    s(18) = (  0.0000000 -1.0000000  0.0000000 )
                  (  0.0000000  0.0000000  1.0000000 )
                  ( -1.0000000  0.0000000  0.0000000 )


      isym = 19     120 deg rotation - cart. axis [1,1,-1]       

 cryst.   s(19) = (     0          0         -1      )
                  (     1          0          0      )
                  (     0         -1          0      )

 cart.    s(19) = (  0.0000000  1.0000000  0.0000000 )
                  (  0.0000000  0.0000000 -1.0000000 )
                  ( -1.0000000  0.0000000  0.0000000 )


      isym = 20     120 deg rotation - cart. axis [1,-1,1]       

 cryst.   s(20) = (     0          0          1      )
                  (    -1          0          0      )
                  (     0         -1          0      )

 cart.    s(20) = (  0.0000000 -1.0000000  0.0000000 )
                  (  0.0000000  0.0000000 -1.0000000 )
                  (  1.0000000  0.0000000  0.0000000 )


      isym = 21     120 deg rotation - cart. axis [1,1,1]        

 cryst.   s(21) = (     0          1          0      )
                  (     0          0          1      )
                  (     1          0          0      )

 cart.    s(21) = (  0.0000000  0.0000000  1.0000000 )
                  (  1.0000000  0.0000000  0.0000000 )
                  (  0.0000000  1.0000000  0.0000000 )


      isym = 22     120 deg rotation - cart. axis [-1,1,-1]      

 cryst.   s(22) = (     0         -1          0      )
                  (     0          0         -1      )
                  (     1          0          0      )

 cart.    s(22) = (  0.0000000  0.0000000  1.0000000 )
                  ( -1.0000000  0.0000000  0.0000000 )
                  (  0.0000000 -1.0000000  0.0000000 )


      isym = 23     120 deg rotation - cart. axis [1,-1,-1]      

 cryst.   s(23) = (     0         -1          0      )
                  (     0          0          1      )
                  (    -1          0          0      )

 cart.    s(23) = (  0.0000000  0.0000000 -1.0000000 )
                  ( -1.0000000  0.0000000  0.0000000 )
                  (  0.0000000  1.0000000  0.0000000 )


      isym = 24     120 deg rotation - cart. axis [-1,-1,1]      

 cryst.   s(24) = (     0          1          0      )
                  (     0          0         -1      )
                  (    -1          0          0      )

 cart.    s(24) = (  0.0000000  0.0000000 -1.0000000 )
                  (  1.0000000  0.0000000  0.0000000 )
                  (  0.0000000 -1.0000000  0.0000000 )


      isym = 25     inversion                                    

 cryst.   s(25) = (    -1          0          0      )
                  (     0         -1          0      )
                  (     0          0         -1      )

 cart.    s(25) = ( -1.0000000  0.0000000  0.0000000 )
                  (  0.0000000 -1.0000000  0.0000000 )
                  (  0.0000000  0.0000000 -1.0000000 )


      isym = 26     inv. 180 deg rotation - cart. axis [0,0,1]   

 cryst.   s(26) = (     1          0          0      )
                  (     0          1          0      )
                  (     0          0         -1      )

 cart.    s(26) = (  1.0000000  0.0000000  0.0000000 )
                  (  0.0000000  1.0000000  0.0000000 )
                  (  0.0000000  0.0000000 -1.0000000 )


      isym = 27     inv. 180 deg rotation - cart. axis [0,1,0]   

 cryst.   s(27) = (     1          0          0      )
                  (     0         -1          0      )
                  (     0          0          1      )

 cart.    s(27) = (  1.0000000  0.0000000  0.0000000 )
                  (  0.0000000 -1.0000000  0.0000000 )
                  (  0.0000000  0.0000000  1.0000000 )


      isym = 28     inv. 180 deg rotation - cart. axis [1,0,0]   

 cryst.   s(28) = (    -1          0          0      )
                  (     0          1          0      )
                  (     0          0          1      )

 cart.    s(28) = ( -1.0000000  0.0000000  0.0000000 )
                  (  0.0000000  1.0000000  0.0000000 )
                  (  0.0000000  0.0000000  1.0000000 )


      isym = 29     inv. 180 deg rotation - cart. axis [1,1,0]   

 cryst.   s(29) = (     0         -1          0      )
                  (    -1          0          0      )
                  (     0          0          1      )

 cart.    s(29) = (  0.0000000 -1.0000000  0.0000000 )
                  ( -1.0000000  0.0000000  0.0000000 )
                  (  0.0000000  0.0000000  1.0000000 )


      isym = 30     inv. 180 deg rotation - cart. axis [1,-1,0]  

 cryst.   s(30) = (     0          1          0      )
                  (     1          0          0      )
                  (     0          0          1      )

 cart.    s(30) = (  0.0000000  1.0000000  0.0000000 )
                  (  1.0000000  0.0000000  0.0000000 )
                  (  0.0000000  0.0000000  1.0000000 )


      isym = 31     inv.  90 deg rotation - cart. axis [0,0,-1]  

 cryst.   s(31) = (     0          1          0      )
                  (    -1          0          0      )
                  (     0          0         -1      )

 cart.    s(31) = (  0.0000000 -1.0000000  0.0000000 )
                  (  1.0000000  0.0000000  0.0000000 )
                  (  0.0000000  0.0000000 -1.0000000 )


      isym = 32     inv.  90 deg rotation - cart. axis [0,0,1]   

 cryst.   s(32) = (     0         -1          0      )
                  (     1          0          0      )
                  (     0          0         -1      )

 cart.    s(32) = (  0.0000000  1.0000000  0.0000000 )
                  ( -1.0000000  0.0000000  0.0000000 )
                  (  0.0000000  0.0000000 -1.0000000 )


      isym = 33     inv. 180 deg rotation - cart. axis [1,0,1]   

 cryst.   s(33) = (     0          0         -1      )
                  (     0          1          0      )
                  (    -1          0          0      )

 cart.    s(33) = (  0.0000000  0.0000000 -1.0000000 )
                  (  0.0000000  1.0000000  0.0000000 )
                  ( -1.0000000  0.0000000  0.0000000 )


      isym = 34     inv. 180 deg rotation - cart. axis [-1,0,1]  

 cryst.   s(34) = (     0          0          1      )
                  (     0          1          0      )
                  (     1          0          0      )

 cart.    s(34) = (  0.0000000  0.0000000  1.0000000 )
                  (  0.0000000  1.0000000  0.0000000 )
                  (  1.0000000  0.0000000  0.0000000 )


      isym = 35     inv.  90 deg rotation - cart. axis [0,1,0]   

 cryst.   s(35) = (     0          0          1      )
                  (     0         -1          0      )
                  (    -1          0          0      )

 cart.    s(35) = (  0.0000000  0.0000000 -1.0000000 )
                  (  0.0000000 -1.0000000  0.0000000 )
                  (  1.0000000  0.0000000  0.0000000 )


      isym = 36     inv.  90 deg rotation - cart. axis [0,-1,0]  

 cryst.   s(36) = (     0          0         -1      )
                  (     0         -1          0      )
                  (     1          0          0      )

 cart.    s(36) = (  0.0000000  0.0000000  1.0000000 )
                  (  0.0000000 -1.0000000  0.0000000 )
                  ( -1.0000000  0.0000000  0.0000000 )


      isym = 37     inv. 180 deg rotation - cart. axis [0,1,1]   

 cryst.   s(37) = (     1          0          0      )
                  (     0          0         -1      )
                  (     0         -1          0      )

 cart.    s(37) = (  1.0000000  0.0000000  0.0000000 )
                  (  0.0000000  0.0000000 -1.0000000 )
                  (  0.0000000 -1.0000000  0.0000000 )


      isym = 38     inv. 180 deg rotation - cart. axis [0,1,-1]  

 cryst.   s(38) = (     1          0          0      )
                  (     0          0          1      )
                  (     0          1          0      )

 cart.    s(38) = (  1.0000000  0.0000000  0.0000000 )
                  (  0.0000000  0.0000000  1.0000000 )
                  (  0.0000000  1.0000000  0.0000000 )


      isym = 39     inv.  90 deg rotation - cart. axis [-1,0,0]  

 cryst.   s(39) = (    -1          0          0      )
                  (     0          0          1      )
                  (     0         -1          0      )

 cart.    s(39) = ( -1.0000000  0.0000000  0.0000000 )
                  (  0.0000000  0.0000000 -1.0000000 )
                  (  0.0000000  1.0000000  0.0000000 )


      isym = 40     inv.  90 deg rotation - cart. axis [1,0,0]   

 cryst.   s(40) = (    -1          0          0      )
                  (     0          0         -1      )
                  (     0          1          0      )

 cart.    s(40) = ( -1.0000000  0.0000000  0.0000000 )
                  (  0.0000000  0.0000000  1.0000000 )
                  (  0.0000000 -1.0000000  0.0000000 )


      isym = 41     inv. 120 deg rotation - cart. axis [-1,-1,-1]

 cryst.   s(41) = (     0          0         -1      )
                  (    -1          0          0      )
                  (     0         -1          0      )

 cart.    s(41) = (  0.0000000 -1.0000000  0.0000000 )
                  (  0.0000000  0.0000000 -1.0000000 )
                  ( -1.0000000  0.0000000  0.0000000 )


      isym = 42     inv. 120 deg rotation - cart. axis [-1,1,1]  

 cryst.   s(42) = (     0          0          1      )
                  (     1          0          0      )
                  (     0         -1          0      )

 cart.    s(42) = (  0.0000000  1.0000000  0.0000000 )
                  (  0.0000000  0.0000000 -1.0000000 )
                  (  1.0000000  0.0000000  0.0000000 )


      isym = 43     inv. 120 deg rotation - cart. axis [1,1,-1]  

 cryst.   s(43) = (     0          0          1      )
                  (    -1          0          0      )
                  (     0          1          0      )

 cart.    s(43) = (  0.0000000 -1.0000000  0.0000000 )
                  (  0.0000000  0.0000000  1.0000000 )
                  (  1.0000000  0.0000000  0.0000000 )


      isym = 44     inv. 120 deg rotation - cart. axis [1,-1,1]  

 cryst.   s(44) = (     0          0         -1      )
                  (     1          0          0      )
                  (     0          1          0      )

 cart.    s(44) = (  0.0000000  1.0000000  0.0000000 )
                  (  0.0000000  0.0000000  1.0000000 )
                  ( -1.0000000  0.0000000  0.0000000 )


      isym = 45     inv. 120 deg rotation - cart. axis [1,1,1]   

 cryst.   s(45) = (     0         -1          0      )
                  (     0          0         -1      )
                  (    -1          0          0      )

 cart.    s(45) = (  0.0000000  0.0000000 -1.0000000 )
                  ( -1.0000000  0.0000000  0.0000000 )
                  (  0.0000000 -1.0000000  0.0000000 )


      isym = 46     inv. 120 deg rotation - cart. axis [-1,1,-1] 

 cryst.   s(46) = (     0          1          0      )
                  (     0          0          1      )
                  (    -1          0          0      )

 cart.    s(46) = (  0.0000000  0.0000000 -1.0000000 )
                  (  1.0000000  0.0000000  0.0000000 )
                  (  0.0000000  1.0000000  0.0000000 )


      isym = 47     inv. 120 deg rotation - cart. axis [1,-1,-1] 

 cryst.   s(47) = (     0          1          0      )
                  (     0          0         -1      )
                  (     1          0          0      )

 cart.    s(47) = (  0.0000000  0.0000000  1.0000000 )
                  (  1.0000000  0.0000000  0.0000000 )
                  (  0.0000000 -1.0000000  0.0000000 )


      isym = 48     inv. 120 deg rotation - cart. axis [-1,-1,1] 

 cryst.   s(48) = (     0         -1          0      )
                  (     0          0          1      )
                  (     1          0          0      )

 cart.    s(48) = (  0.0000000  0.0000000  1.0000000 )
                  ( -1.0000000  0.0000000  0.0000000 )
                  (  0.0000000  1.0000000  0.0000000 )


   Cartesian axes

     site n.     atom                  positions (alat units)
         1        Ba     tau(   1) = (   0.0000000   0.0000000   0.0000000  )
         2        Ca     tau(   2) = (   0.5000000   0.5000000   0.5000000  )
         3        O      tau(   3) = (   0.5000000   0.5000000   0.0000000  )
         4        O      tau(   4) = (   0.5000000   0.0000000   0.5000000  )
         5        O      tau(   5) = (   0.0000000   0.5000000   0.5000000  )

   Crystallographic axes

     site n.     atom                  positions (cryst. coord.)
         1        Ba     tau(   1) = (  0.0000000  0.0000000  0.0000000  )
         2        Ca     tau(   2) = (  0.5000000  0.5000000  0.5000000  )
         3        O      tau(   3) = (  0.5000000  0.5000000  0.0000000  )
         4        O      tau(   4) = (  0.5000000  0.0000000  0.5000000  )
         5        O      tau(   5) = (  0.0000000  0.5000000  0.5000000  )

     number of k points=    56  Marzari-Vanderbilt smearing, width (Ry)=  0.0200
                       cart. coord. in units 2pi/alat
        k(    1) = (   0.0416667   0.0416667   0.0416667), wk =   0.0092593
        k(    2) = (   0.0416667   0.0416667   0.1250000), wk =   0.0277778
        k(    3) = (   0.0416667   0.0416667   0.2083333), wk =   0.0277778
        k(    4) = (   0.0416667   0.0416667   0.2916667), wk =   0.0277778
        k(    5) = (   0.0416667   0.0416667   0.3750000), wk =   0.0277778
        k(    6) = (   0.0416667   0.0416667   0.4583333), wk =   0.0277778
        k(    7) = (   0.0416667   0.1250000   0.1250000), wk =   0.0277778
        k(    8) = (   0.0416667   0.1250000   0.2083333), wk =   0.0555556
        k(    9) = (   0.0416667   0.1250000   0.2916667), wk =   0.0555556
        k(   10) = (   0.0416667   0.1250000   0.3750000), wk =   0.0555556
        k(   11) = (   0.0416667   0.1250000   0.4583333), wk =   0.0555556
        k(   12) = (   0.0416667   0.2083333   0.2083333), wk =   0.0277778
        k(   13) = (   0.0416667   0.2083333   0.2916667), wk =   0.0555556
        k(   14) = (   0.0416667   0.2083333   0.3750000), wk =   0.0555556
        k(   15) = (   0.0416667   0.2083333   0.4583333), wk =   0.0555556
        k(   16) = (   0.0416667   0.2916667   0.2916667), wk =   0.0277778
        k(   17) = (   0.0416667   0.2916667   0.3750000), wk =   0.0555556
        k(   18) = (   0.0416667   0.2916667   0.4583333), wk =   0.0555556
        k(   19) = (   0.0416667   0.3750000   0.3750000), wk =   0.0277778
        k(   20) = (   0.0416667   0.3750000   0.4583333), wk =   0.0555556
        k(   21) = (   0.0416667   0.4583333   0.4583333), wk =   0.0277778
        k(   22) = (   0.1250000   0.1250000   0.1250000), wk =   0.0092593
        k(   23) = (   0.1250000   0.1250000   0.2083333), wk =   0.0277778
        k(   24) = (   0.1250000   0.1250000   0.2916667), wk =   0.0277778
        k(   25) = (   0.1250000   0.1250000   0.3750000), wk =   0.0277778
        k(   26) = (   0.1250000   0.1250000   0.4583333), wk =   0.0277778
        k(   27) = (   0.1250000   0.2083333   0.2083333), wk =   0.0277778
        k(   28) = (   0.1250000   0.2083333   0.2916667), wk =   0.0555556
        k(   29) = (   0.1250000   0.2083333   0.3750000), wk =   0.0555556
        k(   30) = (   0.1250000   0.2083333   0.4583333), wk =   0.0555556
        k(   31) = (   0.1250000   0.2916667   0.2916667), wk =   0.0277778
        k(   32) = (   0.1250000   0.2916667   0.3750000), wk =   0.0555556
        k(   33) = (   0.1250000   0.2916667   0.4583333), wk =   0.0555556
        k(   34) = (   0.1250000   0.3750000   0.3750000), wk =   0.0277778
        k(   35) = (   0.1250000   0.3750000   0.4583333), wk =   0.0555556
        k(   36) = (   0.1250000   0.4583333   0.4583333), wk =   0.0277778
        k(   37) = (   0.2083333   0.2083333   0.2083333), wk =   0.0092593
        k(   38) = (   0.2083333   0.2083333   0.2916667), wk =   0.0277778
        k(   39) = (   0.2083333   0.2083333   0.3750000), wk =   0.0277778
        k(   40) = (   0.2083333   0.2083333   0.4583333), wk =   0.0277778
        k(   41) = (   0.2083333   0.2916667   0.2916667), wk =   0.0277778
        k(   42) = (   0.2083333   0.2916667   0.3750000), wk =   0.0555556
        k(   43) = (   0.2083333   0.2916667   0.4583333), wk =   0.0555556
        k(   44) = (   0.2083333   0.3750000   0.3750000), wk =   0.0277778
        k(   45) = (   0.2083333   0.3750000   0.4583333), wk =   0.0555556
        k(   46) = (   0.2083333   0.4583333   0.4583333), wk =   0.0277778
        k(   47) = (   0.2916667   0.2916667   0.2916667), wk =   0.0092593
        k(   48) = (   0.2916667   0.2916667   0.3750000), wk =   0.0277778
        k(   49) = (   0.2916667   0.2916667   0.4583333), wk =   0.0277778
        k(   50) = (   0.2916667   0.3750000   0.3750000), wk =   0.0277778
        k(   51) = (   0.2916667   0.3750000   0.4583333), wk =   0.0555556
        k(   52) = (   0.2916667   0.4583333   0.4583333), wk =   0.0277778
        k(   53) = (   0.3750000   0.3750000   0.3750000), wk =   0.0092593
        k(   54) = (   0.3750000   0.3750000   0.4583333), wk =   0.0277778
        k(   55) = (   0.3750000   0.4583333   0.4583333), wk =   0.0277778
        k(   56) = (   0.4583333   0.4583333   0.4583333), wk =   0.0092593

                       cryst. coord.
        k(    1) = (   0.0416667   0.0416667   0.0416667), wk =   0.0092593
        k(    2) = (   0.0416667   0.0416667   0.1250000), wk =   0.0277778
        k(    3) = (   0.0416667   0.0416667   0.2083333), wk =   0.0277778
        k(    4) = (   0.0416667   0.0416667   0.2916667), wk =   0.0277778
        k(    5) = (   0.0416667   0.0416667   0.3750000), wk =   0.0277778
        k(    6) = (   0.0416667   0.0416667   0.4583333), wk =   0.0277778
        k(    7) = (   0.0416667   0.1250000   0.1250000), wk =   0.0277778
        k(    8) = (   0.0416667   0.1250000   0.2083333), wk =   0.0555556
        k(    9) = (   0.0416667   0.1250000   0.2916667), wk =   0.0555556
        k(   10) = (   0.0416667   0.1250000   0.3750000), wk =   0.0555556
        k(   11) = (   0.0416667   0.1250000   0.4583333), wk =   0.0555556
        k(   12) = (   0.0416667   0.2083333   0.2083333), wk =   0.0277778
        k(   13) = (   0.0416667   0.2083333   0.2916667), wk =   0.0555556
        k(   14) = (   0.0416667   0.2083333   0.3750000), wk =   0.0555556
        k(   15) = (   0.0416667   0.2083333   0.4583333), wk =   0.0555556
        k(   16) = (   0.0416667   0.2916667   0.2916667), wk =   0.0277778
        k(   17) = (   0.0416667   0.2916667   0.3750000), wk =   0.0555556
        k(   18) = (   0.0416667   0.2916667   0.4583333), wk =   0.0555556
        k(   19) = (   0.0416667   0.3750000   0.3750000), wk =   0.0277778
        k(   20) = (   0.0416667   0.3750000   0.4583333), wk =   0.0555556
        k(   21) = (   0.0416667   0.4583333   0.4583333), wk =   0.0277778
        k(   22) = (   0.1250000   0.1250000   0.1250000), wk =   0.0092593
        k(   23) = (   0.1250000   0.1250000   0.2083333), wk =   0.0277778
        k(   24) = (   0.1250000   0.1250000   0.2916667), wk =   0.0277778
        k(   25) = (   0.1250000   0.1250000   0.3750000), wk =   0.0277778
        k(   26) = (   0.1250000   0.1250000   0.4583333), wk =   0.0277778
        k(   27) = (   0.1250000   0.2083333   0.2083333), wk =   0.0277778
        k(   28) = (   0.1250000   0.2083333   0.2916667), wk =   0.0555556
        k(   29) = (   0.1250000   0.2083333   0.3750000), wk =   0.0555556
        k(   30) = (   0.1250000   0.2083333   0.4583333), wk =   0.0555556
        k(   31) = (   0.1250000   0.2916667   0.2916667), wk =   0.0277778
        k(   32) = (   0.1250000   0.2916667   0.3750000), wk =   0.0555556
        k(   33) = (   0.1250000   0.2916667   0.4583333), wk =   0.0555556
        k(   34) = (   0.1250000   0.3750000   0.3750000), wk =   0.0277778
        k(   35) = (   0.1250000   0.3750000   0.4583333), wk =   0.0555556
        k(   36) = (   0.1250000   0.4583333   0.4583333), wk =   0.0277778
        k(   37) = (   0.2083333   0.2083333   0.2083333), wk =   0.0092593
        k(   38) = (   0.2083333   0.2083333   0.2916667), wk =   0.0277778
        k(   39) = (   0.2083333   0.2083333   0.3750000), wk =   0.0277778
        k(   40) = (   0.2083333   0.2083333   0.4583333), wk =   0.0277778
        k(   41) = (   0.2083333   0.2916667   0.2916667), wk =   0.0277778
        k(   42) = (   0.2083333   0.2916667   0.3750000), wk =   0.0555556
        k(   43) = (   0.2083333   0.2916667   0.4583333), wk =   0.0555556
        k(   44) = (   0.2083333   0.3750000   0.3750000), wk =   0.0277778
        k(   45) = (   0.2083333   0.3750000   0.4583333), wk =   0.0555556
        k(   46) = (   0.2083333   0.4583333   0.4583333), wk =   0.0277778
        k(   47) = (   0.2916667   0.2916667   0.2916667), wk =   0.0092593
        k(   48) = (   0.2916667   0.2916667   0.3750000), wk =   0.0277778
        k(   49) = (   0.2916667   0.2916667   0.4583333), wk =   0.0277778
        k(   50) = (   0.2916667   0.3750000   0.3750000), wk =   0.0277778
        k(   51) = (   0.2916667   0.3750000   0.4583333), wk =   0.0555556
        k(   52) = (   0.2916667   0.4583333   0.4583333), wk =   0.0277778
        k(   53) = (   0.3750000   0.3750000   0.3750000), wk =   0.0092593
        k(   54) = (   0.3750000   0.3750000   0.4583333), wk =   0.0277778
        k(   55) = (   0.3750000   0.4583333   0.4583333), wk =   0.0277778
        k(   56) = (   0.4583333   0.4583333   0.4583333), wk =   0.0092593

     Dense  grid:    80989 G-vectors     FFT dimensions: (  54,  54,  54)

     Smooth grid:    20377 G-vectors     FFT dimensions: (  36,  36,  36)

     Dynamical RAM for                 wfc:       0.09 MB

     Dynamical RAM for     wfc (w. buffer):       2.61 MB

     Dynamical RAM for           str. fact:       0.37 MB

     Dynamical RAM for           local pot:       0.00 MB

     Dynamical RAM for          nlocal pot:       0.24 MB

     Dynamical RAM for                qrad:       6.42 MB

     Dynamical RAM for          rho,v,vnew:       0.77 MB

     Dynamical RAM for               rhoin:       0.26 MB

     Dynamical RAM for            rho*nmix:       1.98 MB

     Dynamical RAM for           G-vectors:       0.48 MB

     Dynamical RAM for          h,s,v(r/c):       0.10 MB

     Dynamical RAM for          <psi|beta>:       0.02 MB

     Dynamical RAM for                 psi:       0.18 MB

     Dynamical RAM for                hpsi:       0.18 MB

     Dynamical RAM for                spsi:       0.18 MB

     Dynamical RAM for      wfcinit/wfcrot:       0.23 MB

     Dynamical RAM for           addusdens:      12.91 MB

     Dynamical RAM for          addusforce:      13.17 MB

     Dynamical RAM for         addusstress:      13.62 MB

     Estimated static dynamical RAM per process >      12.30 MB

     Estimated max dynamical RAM per process >      27.91 MB

     Estimated total dynamical RAM >     538.33 MB

     Check: negative core charge=   -0.000002

     Initial potential from superposition of free atoms

     starting charge      37.9791, renormalised to      38.0000
     Starting wfcs are   27 randomized atomic wfcs
     Checking if some PAW data can be deallocated... 
       PAW data deallocated on   16 nodes for type:  1
       PAW data deallocated on    8 nodes for type:  3

     total cpu time spent up to now is        2.5 secs

     Self-consistent Calculation

     iteration #  1     ecut=    40.00 Ry     beta= 0.40
     Davidson diagonalization with overlap

---- Real-time Memory Report at c_bands before calling an iterative solver
            61 MiB given to the printing process from OS
             0 MiB allocation reported by mallinfo(arena+hblkhd)
         25459 MiB available memory on the node where the printing process lives
------------------
     ethr =  1.00E-02,  avg # of iterations =  3.0

     total cpu time spent up to now is        3.6 secs

     total energy              =    -628.09765527 Ry
     estimated scf accuracy    <       0.66032096 Ry

     iteration #  2     ecut=    40.00 Ry     beta= 0.40
     Davidson diagonalization with overlap

---- Real-time Memory Report at c_bands before calling an iterative solver
            65 MiB given to the printing process from OS
             0 MiB allocation reported by mallinfo(arena+hblkhd)
         25460 MiB available memory on the node where the printing process lives
------------------
     ethr =  1.74E-03,  avg # of iterations =  5.2

     total cpu time spent up to now is        5.1 secs

     total energy              =    -628.27831744 Ry
     estimated scf accuracy    <       0.05751510 Ry

     iteration #  3     ecut=    40.00 Ry     beta= 0.40
     Davidson diagonalization with overlap

---- Real-time Memory Report at c_bands before calling an iterative solver
            65 MiB given to the printing process from OS
             0 MiB allocation reported by mallinfo(arena+hblkhd)
         25448 MiB available memory on the node where the printing process lives
------------------
     ethr =  1.51E-04,  avg # of iterations = 10.8

     total cpu time spent up to now is        7.6 secs

     total energy              =    -628.28512248 Ry
     estimated scf accuracy    <       0.00907807 Ry

     iteration #  4     ecut=    40.00 Ry     beta= 0.40
     Davidson diagonalization with overlap

---- Real-time Memory Report at c_bands before calling an iterative solver
            65 MiB given to the printing process from OS
             0 MiB allocation reported by mallinfo(arena+hblkhd)
         25441 MiB available memory on the node where the printing process lives
------------------
     ethr =  2.39E-05,  avg # of iterations =  4.1

     total cpu time spent up to now is        8.8 secs

     total energy              =    -628.28642195 Ry
     estimated scf accuracy    <       0.00189012 Ry

     iteration #  5     ecut=    40.00 Ry     beta= 0.40
     Davidson diagonalization with overlap

---- Real-time Memory Report at c_bands before calling an iterative solver
            65 MiB given to the printing process from OS
             0 MiB allocation reported by mallinfo(arena+hblkhd)
         25454 MiB available memory on the node where the printing process lives
------------------
     ethr =  4.97E-06,  avg # of iterations =  5.4

     total cpu time spent up to now is       10.6 secs

     total energy              =    -628.28673705 Ry
     estimated scf accuracy    <       0.00011859 Ry

     iteration #  6     ecut=    40.00 Ry     beta= 0.40
     Davidson diagonalization with overlap

---- Real-time Memory Report at c_bands before calling an iterative solver
            65 MiB given to the printing process from OS
             0 MiB allocation reported by mallinfo(arena+hblkhd)
         25432 MiB available memory on the node where the printing process lives
------------------
     ethr =  3.12E-07,  avg # of iterations =  2.2

     total cpu time spent up to now is       12.8 secs

     total energy              =    -628.28677206 Ry
     estimated scf accuracy    <       0.00001113 Ry

     iteration #  7     ecut=    40.00 Ry     beta= 0.40
     Davidson diagonalization with overlap

---- Real-time Memory Report at c_bands before calling an iterative solver
            65 MiB given to the printing process from OS
             0 MiB allocation reported by mallinfo(arena+hblkhd)
         25450 MiB available memory on the node where the printing process lives
------------------
     ethr =  2.93E-08,  avg # of iterations =  3.9

     total cpu time spent up to now is       14.3 secs

     total energy              =    -628.28676101 Ry
     estimated scf accuracy    <       0.00002706 Ry

     iteration #  8     ecut=    40.00 Ry     beta= 0.40
     Davidson diagonalization with overlap

---- Real-time Memory Report at c_bands before calling an iterative solver
            66 MiB given to the printing process from OS
             0 MiB allocation reported by mallinfo(arena+hblkhd)
         25481 MiB available memory on the node where the printing process lives
------------------
     ethr =  2.93E-08,  avg # of iterations =  4.1

     total cpu time spent up to now is       15.7 secs

     total energy              =    -628.28677100 Ry
     estimated scf accuracy    <       0.00001757 Ry

     iteration #  9     ecut=    40.00 Ry     beta= 0.40
     Davidson diagonalization with overlap

---- Real-time Memory Report at c_bands before calling an iterative solver
            66 MiB given to the printing process from OS
             0 MiB allocation reported by mallinfo(arena+hblkhd)
         25472 MiB available memory on the node where the printing process lives
------------------
     ethr =  2.93E-08,  avg # of iterations =  2.0

     total cpu time spent up to now is       16.8 secs

     total energy              =    -628.28677232 Ry
     estimated scf accuracy    <       0.00000201 Ry

     iteration # 10     ecut=    40.00 Ry     beta= 0.40
     Davidson diagonalization with overlap

---- Real-time Memory Report at c_bands before calling an iterative solver
            66 MiB given to the printing process from OS
             0 MiB allocation reported by mallinfo(arena+hblkhd)
         25504 MiB available memory on the node where the printing process lives
------------------
     ethr =  5.28E-09,  avg # of iterations =  2.1

     total cpu time spent up to now is       17.9 secs

     total energy              =    -628.28677225 Ry
     estimated scf accuracy    <       0.00000059 Ry

     iteration # 11     ecut=    40.00 Ry     beta= 0.40
     Davidson diagonalization with overlap

---- Real-time Memory Report at c_bands before calling an iterative solver
            66 MiB given to the printing process from OS
             0 MiB allocation reported by mallinfo(arena+hblkhd)
         25512 MiB available memory on the node where the printing process lives
------------------
     ethr =  1.55E-09,  avg # of iterations =  3.3

     total cpu time spent up to now is       19.1 secs

     End of self-consistent calculation

          k = 0.0417 0.0417 0.0417 (  2550 PWs)   bands (ev):

   -30.3725 -20.0264 -11.7363 -11.7354 -11.7354  -9.9087  -9.5868  -9.5868
    -5.0735  -5.0735  -5.0648   4.5181   4.5658   4.5658   5.0251   5.0251
     5.0750   5.7062   5.7412   5.7412  10.3363  10.3363  10.6621

     occupation numbers 
     1.0000   1.0000   1.0000   1.0000   1.0000   1.0000   1.0000   1.0000
     1.0000   1.0000   1.0000   1.0001   1.0002   1.0002   1.0646   1.0646
     1.0787   0.0662   0.0438   0.0438   0.0000   0.0000   0.0000

          k = 0.0417 0.0417 0.1250 (  2561 PWs)   bands (ev):

   -30.3720 -20.0242 -11.8534 -11.7352 -11.7343  -9.8747  -9.5852  -9.4684
    -5.0747  -5.0697  -5.0522   4.4315   4.5504   4.5637   4.9240   4.9767
     5.0601   5.5097   5.7083   5.7191  10.4885  10.5056  10.9142

     occupation numbers 
     1.0000   1.0000   1.0000   1.0000   1.0000   1.0000   1.0000   1.0000
     1.0000   1.0000   1.0000   1.0000   1.0001   1.0002   1.0315   1.0480
     1.0752   0.3776   0.0646   0.0570   0.0000   0.0000   0.0000

          k = 0.0417 0.0417 0.2083 (  2563 PWs)   bands (ev):

   -30.3711 -20.0204 -12.0255 -11.7339 -11.7325  -9.8699  -9.5824  -9.2389
    -5.0692  -5.0630  -5.0379   4.3098   4.5196   4.5304   4.7963   4.8929
     5.0032   5.1820   5.6707   5.6830  10.7574  10.7929  11.3999

     occupation numbers 
     1.0000   1.0000   1.0000   1.0000   1.0000   1.0000   1.0000   1.0000
     1.0000   1.0000   1.0000   1.0000   1.0001   1.0001   1.0077   1.0234
     1.0572   1.0657   0.0973   0.0854   0.0000   0.0000   0.0000

          k = 0.0417 0.0417 0.2917 (  2567 PWs)   bands (ev):

   -30.3700 -20.0160 -12.1921 -11.7324 -11.7304  -9.8873  -9.5792  -8.9796
    -5.0588  -5.0553  -5.0254   4.1818   4.4713   4.4752   4.6729   4.7240
     4.9205   4.9327   5.6295   5.6427  11.0782  11.1304  12.0607

     occupation numbers 
     1.0000   1.0000   1.0000   1.0000   1.0000   1.0000   1.0000   1.0000
     1.0000   1.0000   1.0000   1.0000   1.0000   1.0000   1.0012   1.0028
     1.0305   1.0340   0.1461   0.1289   0.0000   0.0000   0.0000

          k = 0.0417 0.0417 0.3750 (  2571 PWs)   bands (ev):

   -30.3691 -20.0122 -12.3178 -11.7311 -11.7286  -9.9079  -9.5764  -8.7646
    -5.0486  -5.0469  -5.0175   4.0728   4.3991   4.4278   4.4711   4.5789
     4.8446   4.8766   5.5949   5.6097  11.3691  11.4376  12.3427

     occupation numbers 
     1.0000   1.0000   1.0000   1.0000   1.0000   1.0000   1.0000   1.0000
     1.0000   1.0000   1.0000   1.0000   1.0000   1.0000   1.0000   1.0002
     1.0139   1.0198   0.1992   0.1751   0.0000   0.0000   0.0000

          k = 0.0417 0.0417 0.4583 (  2569 PWs)   bands (ev):

   -30.3686 -20.0100 -12.3845 -11.7304 -11.7276  -9.9208  -9.5747  -8.6439
    -5.0448  -5.0384  -5.0146   4.0064   4.2932   4.3822   4.3972   4.5296
     4.8197   4.8470   5.5755   5.5915  11.5449  11.6251  12.6004

     occupation numbers 
     1.0000   1.0000   1.0000   1.0000   1.0000   1.0000   1.0000   1.0000
     1.0000   1.0000   1.0000   1.0000   1.0000   1.0000   1.0000   1.0001
     1.0104   1.0143   0.2341   0.2050   0.0000   0.0000   0.0000

          k = 0.0417 0.1250 0.1250 (  2572 PWs)   bands (ev):

   -30.3715 -20.0220 -11.8549 -11.8514 -11.7339  -9.8239  -9.5084  -9.4392
    -5.0838  -5.0675  -5.0355   4.3213   4.5412   4.5880   4.8039   4.9175
     5.0970   5.4156   5.6008   5.6918  10.6180  10.6766  11.1116

     occupation numbers 
     1.0000   1.0000   1.0000   1.0000   1.0000   1.0000   1.0000   1.0000
     1.0000   1.0000   1.0000   1.0000   1.0001   1.0003   1.0085   1.0297
     1.0823   0.6293   0.1894   0.0776   0.0000   0.0000   0.0000

          k = 0.0417 0.1250 0.2083 (  2570 PWs)   bands (ev):

   -30.3706 -20.0182 -12.0260 -11.8527 -11.7323  -9.8055  -9.4845  -9.2399
    -5.0869  -5.0613  -5.0216   4.1898   4.5129   4.5742   4.6531   4.8360
     5.0732   5.1741   5.5384   5.6517  10.8535  10.9745  11.4999

     occupation numbers 
     1.0000   1.0000   1.0000   1.0000   1.0000   1.0000   1.0000   1.0000
     1.0000   1.0000   1.0000   1.0000   1.0001   1.0002   1.0009   1.0126
     1.0783   1.0699   0.3104   0.1180   0.0000   0.0000   0.0000

          k = 0.0417 0.1250 0.2917 (  2571 PWs)   bands (ev):

   -30.3695 -20.0138 -12.1932 -11.8523 -11.7305  -9.8137  -9.4818  -8.9842
    -5.0817  -5.0536  -5.0149   4.0704   4.4659   4.4807   4.5214   4.7013
     4.9043   5.1033   5.4918   5.6068  11.1546  11.3159  12.0338

     occupation numbers 
     1.0000   1.0000   1.0000   1.0000   1.0000   1.0000   1.0000   1.0000
     1.0000   1.0000   1.0000   1.0000   1.0000   1.0000   1.0001   1.0020
     1.0262   1.0828   0.4226   0.1797   0.0000   0.0000   0.0000

          k = 0.0417 0.1250 0.3750 (  2574 PWs)   bands (ev):

   -30.3686 -20.0100 -12.3192 -11.8520 -11.7289  -9.8278  -9.4805  -8.7701
    -5.0706  -5.0458  -5.0167   3.9893   4.2613   4.4108   4.4642   4.5670
     4.8276   5.0909   5.4486   5.5706  11.4443  11.6212  12.4059

     occupation numbers 
     1.0000   1.0000   1.0000   1.0000   1.0000   1.0000   1.0000   1.0000
     1.0000   1.0000   1.0000   1.0000   1.0000   1.0000   1.0000   1.0002
     1.0114   1.0815   0.5379   0.2434   0.0000   0.0000   0.0000

          k = 0.0417 0.1250 0.4583 (  2567 PWs)   bands (ev):

   -30.3681 -20.0078 -12.3861 -11.8518 -11.7280  -9.8373  -9.4798  -8.6497
    -5.0606  -5.0370  -5.0257   3.9672   4.0876   4.3756   4.4342   4.5028
     4.8004   5.0900   5.4214   5.5502  11.6268  11.8080  12.6497

     occupation numbers 
     1.0000   1.0000   1.0000   1.0000   1.0000   1.0000   1.0000   1.0000
     1.0000   1.0000   1.0000   1.0000   1.0000   1.0000   1.0000   1.0000
     1.0081   1.0814   0.6133   0.2846   0.0000   0.0000   0.0000

          k = 0.0417 0.2083 0.2083 (  2572 PWs)   bands (ev):

   -30.3697 -20.0144 -12.0289 -12.0248 -11.7308  -9.7709  -9.2993  -9.2108
    -5.1009  -5.0556  -5.0126   4.0430   4.4682   4.5136   4.5833   4.7636
     5.0307   5.1248   5.4247   5.6046  11.0368  11.3050  11.7222

     occupation numbers 
     1.0000   1.0000   1.0000   1.0000   1.0000   1.0000   1.0000   1.0000
     1.0000   1.0000   1.0000   1.0000   1.0000   1.0001   1.0002   1.0050
     1.0664   1.0830   0.6040   0.1832   0.0000   0.0000   0.0000

          k = 0.0417 0.2083 0.2917 (  2582 PWs)   bands (ev):

   -30.3686 -20.0100 -12.1950 -12.0279 -11.7290  -9.7645  -9.2676  -8.9911
    -5.1050  -5.0501  -5.0132   3.9089   4.3110   4.4584   4.5392   4.6629
     4.8710   5.1372   5.3873   5.5530  11.2952  11.6746  12.0631

     occupation numbers 
     1.0000   1.0000   1.0000   1.0000   1.0000   1.0000   1.0000   1.0000
     1.0000   1.0000   1.0000   1.0000   1.0000   1.0000   1.0001   1.0010
     1.0187   1.0817   0.7067   0.2789   0.0000   0.0000   0.0000

          k = 0.0417 0.2083 0.3750 (  2582 PWs)   bands (ev):

   -30.3677 -20.0062 -12.3217 -12.0289 -11.7274  -9.7668  -9.2693  -8.7796
    -5.0985  -5.0496  -5.0193   3.8172   4.1104   4.4021   4.4889   4.5671
     4.8078   5.1564   5.3555   5.5106  11.5728  11.9815  12.3821

     occupation numbers 
     1.0000   1.0000   1.0000   1.0000   1.0000   1.0000   1.0000   1.0000
     1.0000   1.0000   1.0000   1.0000   1.0000   1.0000   1.0000   1.0002
     1.0089   1.0771   0.7894   0.3755   0.0000   0.0000   0.0000

          k = 0.0417 0.2083 0.4583 (  2566 PWs)   bands (ev):

   -30.3672 -20.0040 -12.3888 -12.0294 -11.7265  -9.7696  -9.2711  -8.6597
    -5.0859  -5.0584  -5.0226   3.7858   3.9527   4.3711   4.4649   4.5191
     4.7860   5.1771   5.3281   5.4868  11.7664  12.1772  12.5253

     occupation numbers 
     1.0000   1.0000   1.0000   1.0000   1.0000   1.0000   1.0000   1.0000
     1.0000   1.0000   1.0000   1.0000   1.0000   1.0000   1.0000   1.0001
     1.0067   1.0684   0.8551   0.4355   0.0000   0.0000   0.0000

          k = 0.0417 0.2917 0.2917 (  2579 PWs)   bands (ev):

   -30.3676 -20.0056 -12.1984 -12.1959 -11.7272  -9.7448  -9.0370  -8.9755
    -5.1196  -5.0529  -5.0163   3.7457   4.1615   4.4369   4.5018   4.5956
     4.8122   5.0679   5.4341   5.4934  11.4974  12.1245  12.1477

     occupation numbers 
     1.0000   1.0000   1.0000   1.0000   1.0000   1.0000   1.0000   1.0000
     1.0000   1.0000   1.0000   1.0000   1.0000   1.0000   1.0000   1.0003
     1.0094   1.0771   0.5781   0.4185   0.0000   0.0000   0.0000

          k = 0.0417 0.2917 0.3750 (  2572 PWs)   bands (ev):

   -30.3667 -20.0018 -12.3246 -12.1991 -11.7256  -9.7365  -9.0164  -8.7902
    -5.1220  -5.0684  -5.0157   3.6214   4.0009   4.3947   4.4549   4.5173
     4.8103   5.0351   5.4437   5.4780  11.7340  12.2207  12.4803

     occupation numbers 
     1.0000   1.0000   1.0000   1.0000   1.0000   1.0000   1.0000   1.0000
     1.0000   1.0000   1.0000   1.0000   1.0000   1.0000   1.0000   1.0001
     1.0092   1.0679   0.5516   0.4584   0.0000   0.0000   0.0000

          k = 0.0417 0.2917 0.4583 (  2571 PWs)   bands (ev):

   -30.3662 -19.9996 -12.3921 -12.2002 -11.7247  -9.7333  -9.0194  -8.6714
    -5.1128  -5.0895  -5.0137   3.5584   3.8813   4.3640   4.4329   4.4778
     4.8339   5.0121   5.4158   5.4975  11.9390  12.2164  12.6542

     occupation numbers 
     1.0000   1.0000   1.0000   1.0000   1.0000   1.0000   1.0000   1.0000
     1.0000   1.0000   1.0000   1.0000   1.0000   1.0000   1.0000   1.0000
     1.0123   1.0602   0.6286   0.4080   0.0000   0.0000   0.0000

          k = 0.0417 0.3750 0.3750 (  2568 PWs)   bands (ev):

   -30.3658 -19.9979 -12.3276 -12.3266 -11.7241  -9.7202  -8.8147  -8.7886
    -5.1346  -5.0946  -5.0096   3.4713   3.8838   4.3702   4.3880   4.4524
     4.8463   4.9995   5.3874   5.5670  11.8774  12.1662  12.6963

     occupation numbers 
     1.0000   1.0000   1.0000   1.0000   1.0000   1.0000   1.0000   1.0000
     1.0000   1.0000   1.0000   1.0000   1.0000   1.0000   1.0000   1.0000
     1.0142   1.0559   0.7063   0.2503   0.0000   0.0000   0.0000

          k = 0.0417 0.3750 0.4583 (  2571 PWs)   bands (ev):

   -30.3653 -19.9957 -12.3949 -12.3286 -11.7232  -9.7125  -8.8073  -8.6815
    -5.1336  -5.1181  -5.0056   3.3924   3.7934   4.3234   4.3758   4.4149
     4.9029   4.9744   5.3554   5.6094  11.9469  12.1576  12.8116

     occupation numbers 
     1.0000   1.0000   1.0000   1.0000   1.0000   1.0000   1.0000   1.0000
     1.0000   1.0000   1.0000   1.0000   1.0000   1.0000   1.0000   1.0000
     1.0258   1.0473   0.7899   0.1756   0.0000   0.0000   0.0000

          k = 0.0417 0.4583 0.4583 (  2558 PWs)   bands (ev):

   -30.3648 -19.9935 -12.3966 -12.3965 -11.7223  -9.7023  -8.6892  -8.6860
    -5.1426  -5.1372  -5.0009   3.3061   3.7222   4.2699   4.3675   4.3751
     4.9552   4.9767   5.3209   5.6641  11.8358  12.2593  12.8627

     occupation numbers 
     1.0000   1.0000   1.0000   1.0000   1.0000   1.0000   1.0000   1.0000
     1.0000   1.0000   1.0000   1.0000   1.0000   1.0000   1.0000   1.0000
     1.0409   1.0480   0.8714   0.1041   0.0000   0.0000   0.0000

          k = 0.1250 0.1250 0.1250 (  2581 PWs)   bands (ev):

   -30.3709 -20.0198 -11.8579 -11.8502 -11.8502  -9.7376  -9.4372  -9.4372
    -5.0832  -5.0832  -5.0163   4.2112   4.5745   4.5745   4.7791   4.7791
     5.1540   5.3220   5.5828   5.5828  10.7776  10.7776  11.2736

     occupation numbers 
     1.0000   1.0000   1.0000   1.0000   1.0000   1.0000   1.0000   1.0000
     1.0000   1.0000   1.0000   1.0000   1.0002   1.0002   1.0061   1.0061
     1.0778   0.8690   0.2205   0.2205   0.0000   0.0000   0.0000

          k = 0.1250 0.1250 0.2083 (  2574 PWs)   bands (ev):

   -30.3701 -20.0160 -12.0262 -11.8560 -11.8479  -9.6937  -9.4338  -9.2390
    -5.0912  -5.0823  -5.0022   4.0821   4.5388   4.5565   4.6390   4.7179
     5.1110   5.1710   5.4957   5.5505  10.9813  11.0654  11.5862

     occupation numbers 
     1.0000   1.0000   1.0000   1.0000   1.0000   1.0000   1.0000   1.0000
     1.0000   1.0000   1.0000   1.0000   1.0001   1.0001   1.0007   1.0025
     1.0832   1.0714   0.4126   0.2840   0.0000   0.0000   0.0000

          k = 0.1250 0.1250 0.2917 (  2572 PWs)   bands (ev):

   -30.3690 -20.0117 -12.1938 -11.8571 -11.8454  -9.6950  -9.4298  -8.9871
    -5.0876  -5.0813  -4.9988   3.9758   4.4562   4.4825   4.5199   4.5577
     4.9917   5.1552   5.4303   5.5117  11.2610  11.4053  12.0128

     occupation numbers 
     1.0000   1.0000   1.0000   1.0000   1.0000   1.0000   1.0000   1.0000
     1.0000   1.0000   1.0000   1.0000   1.0000   1.0000   1.0001   1.0002
     1.0532   1.0775   0.5884   0.3727   0.0000   0.0000   0.0000

          k = 0.1250 0.1250 0.3750 (  2557 PWs)   bands (ev):

   -30.3681 -20.0079 -12.3201 -11.8581 -11.8431  -9.7066  -9.4264  -8.7741
    -5.0805  -5.0735  -5.0067   3.9169   4.2402   4.3707   4.4058   4.5183
     4.9982   5.1304   5.3688   5.4772  11.5485  11.7044  12.3859

     occupation numbers 
     1.0000   1.0000   1.0000   1.0000   1.0000   1.0000   1.0000   1.0000
     1.0000   1.0000   1.0000   1.0000   1.0000   1.0000   1.0000   1.0001
     1.0555   1.0826   0.7556   0.4608   0.0000   0.0000   0.0000

          k = 0.1250 0.1250 0.4583 (  2564 PWs)   bands (ev):

   -30.3676 -20.0057 -12.3871 -11.8587 -11.8419  -9.7150  -9.4244  -8.6539
    -5.0800  -5.0545  -5.0221   3.9241   4.0345   4.3242   4.3545   4.4959
     5.0246   5.1134   5.3242   5.4564  11.7403  11.8830  12.6333

     occupation numbers 
     1.0000   1.0000   1.0000   1.0000   1.0000   1.0000   1.0000   1.0000
     1.0000   1.0000   1.0000   1.0000   1.0000   1.0000   1.0000   1.0000
     1.0645   1.0833   0.8640   0.5167   0.0000   0.0000   0.0000

          k = 0.1250 0.2083 0.2083 (  2578 PWs)   bands (ev):

   -30.3692 -20.0123 -12.0300 -12.0232 -11.8506  -9.6196  -9.2866  -9.2081
    -5.1061  -5.0881  -4.9918   3.9536   4.4478   4.5329   4.5875   4.6814
     4.9615   5.2189   5.4072   5.4920  11.1645  11.3178  11.7710

     occupation numbers 
     1.0000   1.0000   1.0000   1.0000   1.0000   1.0000   1.0000   1.0000
     1.0000   1.0000   1.0000   1.0000   1.0000   1.0001   1.0003   1.0014
     1.0430   1.0368   0.6524   0.4220   0.0000   0.0000   0.0000

          k = 0.1250 0.2083 0.2917 (  2571 PWs)   bands (ev):

   -30.3681 -20.0079 -12.1949 -12.0271 -11.8493  -9.6054  -9.2565  -8.9911
    -5.1132  -5.0900  -4.9945   3.8481   4.3094   4.4656   4.4844   4.5994
     4.8968   5.2151   5.3660   5.4441  11.4075  11.6514  12.0397

     occupation numbers 
     1.0000   1.0000   1.0000   1.0000   1.0000   1.0000   1.0000   1.0000
     1.0000   1.0000   1.0000   1.0000   1.0000   1.0000   1.0000   1.0003
     1.0244   1.0404   0.7628   0.5504   0.0000   0.0000   0.0000

          k = 0.1250 0.2083 0.3750 (  2568 PWs)   bands (ev):

   -30.3672 -20.0041 -12.3217 -12.0277 -11.8481  -9.6066  -9.2549  -8.7808
    -5.1108  -5.0888  -5.0082   3.7892   4.1169   4.3426   4.3894   4.5613
     4.9508   5.1794   5.3381   5.4032  11.6830  11.9360  12.2959

     occupation numbers 
     1.0000   1.0000   1.0000   1.0000   1.0000   1.0000   1.0000   1.0000
     1.0000   1.0000   1.0000   1.0000   1.0000   1.0000   1.0000   1.0002
     1.0395   1.0671   0.8319   0.6633   0.0000   0.0000   0.0000

          k = 0.1250 0.2083 0.4583 (  2564 PWs)   bands (ev):

   -30.3667 -20.0019 -12.3890 -12.0280 -11.8473  -9.6093  -9.2548  -8.6612
    -5.1074  -5.0820  -5.0241   3.7898   3.9381   4.2959   4.3360   4.5453
     5.0231   5.1240   5.3220   5.3783  11.8875  12.1085  12.4298

     occupation numbers 
     1.0000   1.0000   1.0000   1.0000   1.0000   1.0000   1.0000   1.0000
     1.0000   1.0000   1.0000   1.0000   1.0000   1.0000   1.0000   1.0001
     1.0639   1.0831   0.8689   0.7305   0.0000   0.0000   0.0000

          k = 0.1250 0.2917 0.2917 (  2573 PWs)   bands (ev):

   -30.3671 -20.0035 -12.1986 -12.1939 -11.8475  -9.5774  -9.0350  -8.9717
    -5.1314  -5.0978  -5.0028   3.7280   4.1592   4.4241   4.4304   4.5653
     4.8160   5.1794   5.3836   5.4275  11.5951  11.9866  12.1125

     occupation numbers 
     1.0000   1.0000   1.0000   1.0000   1.0000   1.0000   1.0000   1.0000
     1.0000   1.0000   1.0000   1.0000   1.0000   1.0000   1.0000   1.0002
     1.0099   1.0672   0.7166   0.5961   0.0000   0.0000   0.0000

          k = 0.1250 0.2917 0.3750 (  2572 PWs)   bands (ev):

   -30.3662 -19.9998 -12.3236 -12.1975 -11.8459  -9.5679  -9.0110  -8.7884
    -5.1373  -5.1062  -5.0179   3.6444   3.9968   4.3388   4.3670   4.5096
     4.8721   5.1348   5.3321   5.4758  11.8207  12.1712  12.2705

     occupation numbers 
     1.0000   1.0000   1.0000   1.0000   1.0000   1.0000   1.0000   1.0000
     1.0000   1.0000   1.0000   1.0000   1.0000   1.0000   1.0000   1.0001
     1.0189   1.0820   0.8459   0.4642   0.0000   0.0000   0.0000

          k = 0.1250 0.2917 0.4583 (  2564 PWs)   bands (ev):

   -30.3657 -19.9976 -12.3911 -12.1982 -11.8450  -9.5646  -9.0123  -8.6699
    -5.1343  -5.1138  -5.0300   3.6094   3.8678   4.3016   4.3190   4.4904
     4.9586   5.0705   5.3045   5.4973  12.0309  12.1722  12.4208

     occupation numbers 
     1.0000   1.0000   1.0000   1.0000   1.0000   1.0000   1.0000   1.0000
     1.0000   1.0000   1.0000   1.0000   1.0000   1.0000   1.0000   1.0000
     1.0420   1.0777   0.9061   0.4086   0.0000   0.0000   0.0000

          k = 0.1250 0.3750 0.3750 (  2576 PWs)   bands (ev):

   -30.3653 -19.9960 -12.3263 -12.3243 -11.8439  -9.5505  -8.8112  -8.7837
    -5.1523  -5.1254  -5.0294   3.5305   3.8776   4.3194   4.3298   4.4012
     4.9118   5.1224   5.2694   5.5686  11.9020  12.1833  12.4682

     occupation numbers 
     1.0000   1.0000   1.0000   1.0000   1.0000   1.0000   1.0000   1.0000
     1.0000   1.0000   1.0000   1.0000   1.0000   1.0000   1.0000   1.0000
     1.0281   1.0832   0.9706   0.2473   0.0000   0.0000   0.0000

          k = 0.1250 0.3750 0.4583 (  2560 PWs)   bands (ev):

   -30.3648 -19.9938 -12.3930 -12.3263 -11.8428  -9.5427  -8.8017  -8.6775
    -5.1545  -5.1419  -5.0368   3.4720   3.7858   4.2908   4.3038   4.3613
     4.9905   5.0891   5.2334   5.6132  11.9051  12.2537  12.5916

     occupation numbers 
     1.0000   1.0000   1.0000   1.0000   1.0000   1.0000   1.0000   1.0000
     1.0000   1.0000   1.0000   1.0000   1.0000   1.0000   1.0000   1.0000
     1.0528   1.0812   1.0210   0.1698   0.0000   0.0000   0.0000

          k = 0.1250 0.4583 0.4583 (  2559 PWs)   bands (ev):

   -30.3643 -19.9916 -12.3943 -12.3940 -11.8415  -9.5326  -8.6837  -8.6804
    -5.1637  -5.1595  -5.0412   3.4005   3.7175   4.2685   4.2913   4.2998
     5.0580   5.1020   5.1736   5.6695  11.7854  12.3832  12.6428

     occupation numbers 
     1.0000   1.0000   1.0000   1.0000   1.0000   1.0000   1.0000   1.0000
     1.0000   1.0000   1.0000   1.0000   1.0000   1.0000   1.0000   1.0000
     1.0746   1.0827   1.0702   0.0984   0.0000   0.0000   0.0000

          k = 0.2083 0.2083 0.2083 (  2575 PWs)   bands (ev):

   -30.3683 -20.0085 -12.0368 -12.0203 -12.0203  -9.4502  -9.2033  -9.2033
    -5.1151  -5.1151  -4.9848   3.8464   4.4160   4.4160   4.6455   4.6455
     4.7874   5.2967   5.3813   5.3813  11.4062  11.4062  11.8762

     occupation numbers 
     1.0000   1.0000   1.0000   1.0000   1.0000   1.0000   1.0000   1.0000
     1.0000   1.0000   1.0000   1.0000   1.0000   1.0000   1.0008   1.0008
     1.0069   0.9218   0.7227   0.7227   0.0000   0.0000   0.0000

          k = 0.2083 0.2083 0.2917 (  2567 PWs)   bands (ev):

   -30.3672 -20.0042 -12.1949 -12.0330 -12.0170  -9.4016  -9.1978  -8.9899
    -5.1284  -5.1257  -4.9944   3.7662   4.2999   4.3384   4.4643   4.6328
     4.7726   5.3203   5.3211   5.3661  11.5966  11.7019  12.0293

     occupation numbers 
     1.0000   1.0000   1.0000   1.0000   1.0000   1.0000   1.0000   1.0000
     1.0000   1.0000   1.0000   1.0000   1.0000   1.0000   1.0000   1.0006
     1.0056   0.8726   0.8710   0.7624   0.0000   0.0000   0.0000

          k = 0.2083 0.2083 0.3750 (  2558 PWs)   bands (ev):

   -30.3663 -20.0005 -12.3219 -12.0349 -12.0142  -9.3978  -9.1929  -8.7829
    -5.1349  -5.1261  -5.0162   3.7334   4.1135   4.2165   4.3406   4.6248
     4.8488   5.2746   5.3042   5.3646  11.8623  11.9424  12.1859

     occupation numbers 
     1.0000   1.0000   1.0000   1.0000   1.0000   1.0000   1.0000   1.0000
     1.0000   1.0000   1.0000   1.0000   1.0000   1.0000   1.0000   1.0005
     1.0146   0.9619   0.9068   0.7665   0.0000   0.0000   0.0000

          k = 0.2083 0.2083 0.4583 (  2560 PWs)   bands (ev):

   -30.3658 -19.9983 -12.3892 -12.0360 -12.0125  -9.3997  -9.1901  -8.6640
    -5.1402  -5.1151  -5.0384   3.7581   3.9094   4.1743   4.2980   4.6198
     4.9067   5.2355   5.2913   5.3601  12.0670  12.1156  12.2805

     occupation numbers 
     1.0000   1.0000   1.0000   1.0000   1.0000   1.0000   1.0000   1.0000
     1.0000   1.0000   1.0000   1.0000   1.0000   1.0000   1.0000   1.0005
     1.0268   1.0185   0.9320   0.7778   0.0000   0.0000   0.0000

          k = 0.2083 0.2917 0.2917 (  2567 PWs)   bands (ev):

   -30.3662 -19.9999 -12.1991 -12.1904 -12.0226  -9.3248  -9.0253  -8.9650
    -5.1520  -5.1427  -5.0118   3.6989   4.1783   4.3021   4.3874   4.5628
     4.7200   5.2940   5.3092   5.4277  11.7588  11.9014  12.0461

     occupation numbers 
     1.0000   1.0000   1.0000   1.0000   1.0000   1.0000   1.0000   1.0000
     1.0000   1.0000   1.0000   1.0000   1.0000   1.0000   1.0000   1.0002
     1.0026   0.9268   0.8964   0.5957   0.0000   0.0000   0.0000

          k = 0.2083 0.2917 0.3750 (  2559 PWs)   bands (ev):

   -30.3653 -19.9962 -12.3221 -12.1947 -12.0210  -9.3101  -8.9986  -8.7851
    -5.1644  -5.1525  -5.0395   3.6683   4.0113   4.2162   4.2934   4.5346
     4.7687   5.2789   5.2819   5.4802  11.9332  12.0688  12.1177

     occupation numbers 
     1.0000   1.0000   1.0000   1.0000   1.0000   1.0000   1.0000   1.0000
     1.0000   1.0000   1.0000   1.0000   1.0000   1.0000   1.0000   1.0001
     1.0053   0.9546   0.9492   0.4527   0.0000   0.0000   0.0000

          k = 0.2083 0.2917 0.4583 (  2559 PWs)   bands (ev):

   -30.3648 -19.9941 -12.3895 -12.1949 -12.0200  -9.3063  -8.9969  -8.6673
    -5.1710  -5.1508  -5.0633   3.6814   3.8493   4.1624   4.2624   4.5333
     4.8080   5.2639   5.2669   5.5034  12.0440  12.1169  12.3140

     occupation numbers 
     1.0000   1.0000   1.0000   1.0000   1.0000   1.0000   1.0000   1.0000
     1.0000   1.0000   1.0000   1.0000   1.0000   1.0000   1.0000   1.0001
     1.0089   0.9793   0.9746   0.3932   0.0000   0.0000   0.0000

          k = 0.2083 0.3750 0.3750 (  2557 PWs)   bands (ev):

   -30.3644 -19.9926 -12.3241 -12.3203 -12.0187  -9.2876  -8.8047  -8.7751
    -5.1829  -5.1725  -5.0688   3.6206   3.8800   4.2303   4.2304   4.3953
     4.8086   5.2637   5.2834   5.5742  11.8774  12.1574  12.2054

     occupation numbers 
     1.0000   1.0000   1.0000   1.0000   1.0000   1.0000   1.0000   1.0000
     1.0000   1.0000   1.0000   1.0000   1.0000   1.0000   1.0000   1.0000
     1.0090   0.9795   0.9465   0.2365   0.0000   0.0000   0.0000

          k = 0.2083 0.3750 0.4583 (  2560 PWs)   bands (ev):

   -30.3639 -19.9905 -12.3898 -12.3223 -12.0173  -9.2795  -8.7916  -8.6704
    -5.1914  -5.1811  -5.0906   3.6050   3.7702   4.1845   4.2264   4.3554
     4.8399   5.2641   5.2771   5.6201  11.8255  12.2076  12.3148

     occupation numbers 
     1.0000   1.0000   1.0000   1.0000   1.0000   1.0000   1.0000   1.0000
     1.0000   1.0000   1.0000   1.0000   1.0000   1.0000   1.0000   1.0000
     1.0132   0.9789   0.9577   0.1594   0.0000   0.0000   0.0000

          k = 0.2083 0.4583 0.4583 (  2551 PWs)   bands (ev):

   -30.3634 -19.9884 -12.3902 -12.3898 -12.0157  -9.2691  -8.6742  -8.6706
    -5.2002  -5.1981  -5.1093   3.5632   3.7030   4.1973   4.1985   4.2768
     4.8610   5.2758   5.2828   5.6796  11.6984  12.2905  12.2941

     occupation numbers 
     1.0000   1.0000   1.0000   1.0000   1.0000   1.0000   1.0000   1.0000
     1.0000   1.0000   1.0000   1.0000   1.0000   1.0000   1.0000   1.0000
     1.0168   0.9599   0.9477   0.0886   0.0000   0.0000   0.0000

          k = 0.2917 0.2917 0.2917 (  2554 PWs)   bands (ev):

   -30.3652 -19.9958 -12.2050 -12.1863 -12.1863  -9.1200  -8.9573  -8.9573
    -5.1758  -5.1758  -5.0401   3.6764   4.1967   4.1967   4.2638   4.5679
     4.5679   5.3382   5.3382   5.4681  11.9081  11.9082  11.9799

     occupation numbers 
     1.0000   1.0000   1.0000   1.0000   1.0000   1.0000   1.0000   1.0000
     1.0000   1.0000   1.0000   1.0000   1.0000   1.0000   1.0000   1.0002
     1.0002   0.8317   0.8317   0.4848   0.0000   0.0000   0.0000

          k = 0.2917 0.2917 0.3750 (  2555 PWs)   bands (ev):

   -30.3643 -19.9922 -12.3203 -12.1987 -12.1828  -9.0764  -8.9505  -8.7808
    -5.1965  -5.1907  -5.0776   3.6781   4.0198   4.1232   4.2201   4.5240
     4.5734   5.3357   5.3850   5.5178  11.9379  11.9887  11.9951

     occupation numbers 
     1.0000   1.0000   1.0000   1.0000   1.0000   1.0000   1.0000   1.0000
     1.0000   1.0000   1.0000   1.0000   1.0000   1.0000   1.0000   1.0001
     1.0002   0.8376   0.7127   0.3580   0.0000   0.0000   0.0000

          k = 0.2917 0.2917 0.4583 (  2553 PWs)   bands (ev):

   -30.3638 -19.9901 -12.3877 -12.1991 -12.1808  -9.0704  -8.9465  -8.6645
    -5.2085  -5.1902  -5.1081   3.7201   3.8308   4.0868   4.2115   4.5298
     4.5768   5.3296   5.4101   5.5431  11.9271  12.0119  12.0989

     occupation numbers 
     1.0000   1.0000   1.0000   1.0000   1.0000   1.0000   1.0000   1.0000
     1.0000   1.0000   1.0000   1.0000   1.0000   1.0000   1.0000   1.0001
     1.0002   0.8518   0.6445   0.3000   0.0000   0.0000   0.0000

          k = 0.2917 0.3750 0.3750 (  2548 PWs)   bands (ev):

   -30.3634 -19.9887 -12.3217 -12.3157 -12.1875  -9.0158  -8.7952  -8.7650
    -5.2183  -5.2183  -5.1212   3.6833   3.9118   4.1350   4.1398   4.3983
     4.5685   5.3926   5.4263   5.5881  11.8084  11.9627  11.9719

     occupation numbers 
     1.0000   1.0000   1.0000   1.0000   1.0000   1.0000   1.0000   1.0000
     1.0000   1.0000   1.0000   1.0000   1.0000   1.0000   1.0000   1.0000
     1.0002   0.6924   0.5996   0.2110   0.0000   0.0000   0.0000

          k = 0.2917 0.3750 0.4583 (  2557 PWs)   bands (ev):

   -30.3629 -19.9866 -12.3861 -12.3178 -12.1859  -9.0059  -8.7788  -8.6621
    -5.2338  -5.2234  -5.1537   3.7024   3.7884   4.0915   4.1562   4.3540
     4.5749   5.4092   5.4541   5.6320  11.7323  11.9492  11.9732

     occupation numbers 
     1.0000   1.0000   1.0000   1.0000   1.0000   1.0000   1.0000   1.0000
     1.0000   1.0000   1.0000   1.0000   1.0000   1.0000   1.0000   1.0000
     1.0002   0.6468   0.5229   0.1428   0.0000   0.0000   0.0000

          k = 0.2917 0.4583 0.4583 (  2550 PWs)   bands (ev):

   -30.3624 -19.9846 -12.3855 -12.3848 -12.1841  -8.9939  -8.6631  -8.6591
    -5.2425  -5.2423  -5.1857   3.6628   3.7537   4.1152   4.1171   4.2793
     4.5792   5.4584   5.4661   5.6912  11.5992  11.9270  11.9290

     occupation numbers 
     1.0000   1.0000   1.0000   1.0000   1.0000   1.0000   1.0000   1.0000
     1.0000   1.0000   1.0000   1.0000   1.0000   1.0000   1.0000   1.0000
     1.0002   0.5112   0.4903   0.0781   0.0000   0.0000   0.0000

          k = 0.3750 0.3750 0.3750 (  2533 PWs)   bands (ev):

   -30.3625 -19.9852 -12.3226 -12.3117 -12.3117  -8.8270  -8.7562  -8.7562
    -5.2489  -5.2489  -5.1741   3.6853   3.9259   4.0772   4.0772   4.4018
     4.4018   5.5115   5.5115   5.6222  11.7166  11.8013  11.8013

     occupation numbers 
     1.0000   1.0000   1.0000   1.0000   1.0000   1.0000   1.0000   1.0000
     1.0000   1.0000   1.0000   1.0000   1.0000   1.0000   1.0000   1.0000
     1.0000   0.3732   0.3732   0.1564   0.0000   0.0000   0.0000

          k = 0.3750 0.3750 0.4583 (  2545 PWs)   bands (ev):

   -30.3620 -19.9833 -12.3829 -12.3176 -12.3094  -8.8013  -8.7510  -8.6549
    -5.2667  -5.2590  -5.2118   3.6559   3.8859   4.0455   4.0946   4.3359
     4.4036   5.5378   5.5769   5.6578  11.6341  11.7122  11.7438

     occupation numbers 
     1.0000   1.0000   1.0000   1.0000   1.0000   1.0000   1.0000   1.0000
     1.0000   1.0000   1.0000   1.0000   1.0000   1.0000   1.0000   1.0000
     1.0000   0.3117   0.2315   0.1110   0.0000   0.0000   0.0000

          k = 0.3750 0.4583 0.4583 (  2532 PWs)   bands (ev):

   -30.3615 -19.9814 -12.3815 -12.3805 -12.3111  -8.7712  -8.6532  -8.6489
    -5.2802  -5.2788  -5.2507   3.6002   3.9140   4.0566   4.0605   4.2820
     4.3765   5.6097   5.6158   5.7019  11.5145  11.6315  11.6362

     occupation numbers 
     1.0000   1.0000   1.0000   1.0000   1.0000   1.0000   1.0000   1.0000
     1.0000   1.0000   1.0000   1.0000   1.0000   1.0000   1.0000   1.0000
     1.0000   0.1752   0.1658   0.0694   0.0000   0.0000   0.0000

          k = 0.4583 0.4583 0.4583 (  2536 PWs)   bands (ev):

   -30.3610 -19.9795 -12.3796 -12.3780 -12.3780  -8.6516  -8.6429  -8.6429
    -5.2998  -5.2998  -5.2897   3.5422   4.0004   4.0314   4.0314   4.2833
     4.2833   5.6952   5.6952   5.7124  11.4605  11.4743  11.4743

     occupation numbers 
     1.0000   1.0000   1.0000   1.0000   1.0000   1.0000   1.0000   1.0000
     1.0000   1.0000   1.0000   1.0000   1.0000   1.0000   1.0000   1.0000
     1.0000   0.0747   0.0747   0.0616   0.0000   0.0000   0.0000

     the Fermi energy is     5.5004 ev

!    total energy              =    -628.28677242 Ry
     estimated scf accuracy    <          7.3E-09 Ry
     smearing contrib. (-TS)   =      -0.00190366 Ry
     internal energy E=F+TS    =    -628.28486875 Ry

     The total energy is F=E-TS. E is the sum of the following terms:
     one-electron contribution =     -64.48356329 Ry
     hartree contribution      =      52.32508632 Ry
     xc contribution           =     -53.70760161 Ry
     ewald contribution        =    -166.45952522 Ry
     one-center paw contrib.   =    -395.95926496 Ry
      -> PAW hartree energy AE =      28.32955423 Ry
      -> PAW hartree energy PS =     -28.21296351 Ry
      -> PAW xc energy AE      =    -387.73034958 Ry
      -> PAW xc energy PS      =      19.01813091 Ry
      -> total E_H with PAW    =      52.44167705 Ry
      -> total E_XC with PAW   =    -422.41982027 Ry

     convergence has been achieved in  11 iterations

     Forces acting on atoms (cartesian axes, Ry/au):

     atom    1 type  1   force =     0.00000000    0.00000000    0.00000000
     atom    2 type  2   force =     0.00000000    0.00000000    0.00000000
     atom    3 type  3   force =     0.00000000    0.00000000    0.00000000
     atom    4 type  3   force =     0.00000000    0.00000000    0.00000000
     atom    5 type  3   force =     0.00000000    0.00000000    0.00000000
     The non-local contrib.  to forces
     atom    1 type  1   force =     0.00000000    0.00000000    0.00000000
     atom    2 type  2   force =     0.00000000    0.00000000    0.00000000
     atom    3 type  3   force =     0.00000000    0.00000000    0.00000000
     atom    4 type  3   force =     0.00000000    0.00000000    0.00000000
     atom    5 type  3   force =     0.00000000    0.00000000    0.00000000
     The ionic contribution  to forces
     atom    1 type  1   force =    -0.00000000   -0.00000000   -0.00000000
     atom    2 type  2   force =     0.00000000    0.00000000    0.00000000
     atom    3 type  3   force =     0.00000000    0.00000000   -0.00000000
     atom    4 type  3   force =     0.00000000   -0.00000000    0.00000000
     atom    5 type  3   force =    -0.00000000    0.00000000    0.00000000
     The local contribution  to forces
     atom    1 type  1   force =     0.00000000    0.00000000   -0.00000000
     atom    2 type  2   force =     0.00000000    0.00000000    0.00000000
     atom    3 type  3   force =     0.00000000    0.00000000   -0.00000000
     atom    4 type  3   force =     0.00000000    0.00000000    0.00000000
     atom    5 type  3   force =     0.00000000    0.00000000    0.00000000
     The core correction contribution to forces
     atom    1 type  1   force =     0.00000000   -0.00000000   -0.00000000
     atom    2 type  2   force =     0.00000000    0.00000000   -0.00000000
     atom    3 type  3   force =     0.00000000   -0.00000000   -0.00000000
     atom    4 type  3   force =     0.00000000    0.00000000   -0.00000000
     atom    5 type  3   force =     0.00000000    0.00000000   -0.00000000
     The Hubbard contrib.    to forces
     atom    1 type  1   force =     0.00000000    0.00000000    0.00000000
     atom    2 type  2   force =     0.00000000    0.00000000    0.00000000
     atom    3 type  3   force =     0.00000000    0.00000000    0.00000000
     atom    4 type  3   force =     0.00000000    0.00000000    0.00000000
     atom    5 type  3   force =     0.00000000    0.00000000    0.00000000
     The SCF correction term to forces
     atom    1 type  1   force =    -0.00000000   -0.00000000    0.00000000
     atom    2 type  2   force =     0.00000000   -0.00000000   -0.00000000
     atom    3 type  3   force =    -0.00000000   -0.00000000   -0.00000000
     atom    4 type  3   force =     0.00000000   -0.00000000   -0.00000000
     atom    5 type  3   force =    -0.00000000    0.00000000    0.00000000

     Total force =     0.000000     Total SCF correction =     0.000000


     Computing stress (Cartesian axis) and pressure

          total   stress  (Ry/bohr**3)                   (kbar)     P=      -65.69
  -0.00044658   0.00000000   0.00000000          -65.69        0.00        0.00
   0.00000000  -0.00044658   0.00000000            0.00      -65.69        0.00
   0.00000000   0.00000000  -0.00044658            0.00        0.00      -65.69

     kinetic stress (kbar)  14362.01      0.00      0.00
                                0.00  14362.01      0.00
                                0.00      0.00  14362.01

     local   stress (kbar)  -6185.36     -0.00     -0.00
                               -0.00  -6185.36     -0.00
                               -0.00     -0.00  -6185.36

     nonloc. stress (kbar)   4519.39      0.00      0.00
                                0.00   4519.39      0.00
                                0.00      0.00   4519.39

     hartree stress (kbar)   4272.90      0.00      0.00
                                0.00   4272.90      0.00
                                0.00      0.00   4272.90

     exc-cor stress (kbar)    451.51     -0.00      0.00
                               -0.00    451.51     -0.00
                                0.00     -0.00    451.51

     corecor stress (kbar)  -3892.95      0.00     -0.00
                                0.00  -3892.95      0.00
                               -0.00      0.00  -3892.95

     ewald   stress (kbar) -13593.20     -0.00     -0.00
                               -0.00 -13593.20     -0.00
                               -0.00     -0.00 -13593.20

     hubbard stress (kbar)      0.00      0.00      0.00
                                0.00      0.00      0.00
                                0.00      0.00      0.00

     DFT-D   stress (kbar)      0.00      0.00      0.00
                                0.00      0.00      0.00
                                0.00      0.00      0.00

     XDM     stress (kbar)      0.00      0.00      0.00
                                0.00      0.00      0.00
                                0.00      0.00      0.00

     dft-nl  stress (kbar)      0.00      0.00      0.00
                                0.00      0.00      0.00
                                0.00      0.00      0.00

     TS-vdW  stress (kbar)      0.00      0.00      0.00
                                0.00      0.00      0.00
                                0.00      0.00      0.00

     MDB     stress (kbar)      0.00      0.00      0.00
                                0.00      0.00      0.00
                                0.00      0.00      0.00

     3D-RISM stress (kbar)      0.00      0.00      0.00
                                0.00      0.00      0.00
                                0.00      0.00      0.00


     Writing all to output data dir ./out/BCO.save/ :
     XML data file, charge density, pseudopotentials, collected wavefunctions

     init_run     :      1.01s CPU      1.25s WALL (       1 calls)
     electrons    :     15.69s CPU     16.67s WALL (       1 calls)
     forces       :      0.40s CPU      0.40s WALL (       1 calls)
     stress       :      0.69s CPU      0.82s WALL (       1 calls)

     Called by init_run:
     wfcinit      :      0.30s CPU      0.31s WALL (       1 calls)
     wfcinit:atom :      0.00s CPU      0.00s WALL (      28 calls)
     wfcinit:wfcr :      0.28s CPU      0.29s WALL (      28 calls)
     potinit      :      0.23s CPU      0.38s WALL (       1 calls)
     hinit0       :      0.23s CPU      0.23s WALL (       1 calls)

     Called by electrons:
     c_bands      :     12.28s CPU     12.89s WALL (      11 calls)
     sum_band     :      2.01s CPU      2.20s WALL (      11 calls)
     v_of_rho     :      0.16s CPU      0.18s WALL (      12 calls)
     v_h          :      0.01s CPU      0.01s WALL (      12 calls)
     v_xc         :      0.17s CPU      0.19s WALL (      14 calls)
     newd         :      0.52s CPU      0.61s WALL (      12 calls)
     PAW_pot      :      0.71s CPU      0.80s WALL (      12 calls)
     mix_rho      :      0.02s CPU      0.02s WALL (      11 calls)

     Called by c_bands:
     init_us_2    :      0.09s CPU      0.10s WALL (     700 calls)
     init_us_2:cp :      0.09s CPU      0.10s WALL (     700 calls)
     cegterg      :     10.35s CPU     10.90s WALL (     308 calls)

     Called by sum_band:
     sum_band:wei :      0.01s CPU      0.02s WALL (      11 calls)
     sum_band:loo :      1.07s CPU      1.17s WALL (      11 calls)
     sum_band:buf :      0.01s CPU      0.01s WALL (     308 calls)
     sum_band:ini :      0.03s CPU      0.03s WALL (     308 calls)
     sum_band:cal :      0.34s CPU      0.37s WALL (     308 calls)
     sum_band:bec :      0.01s CPU      0.01s WALL (     308 calls)
     addusdens    :      0.51s CPU      0.54s WALL (      11 calls)
                                        0.00s GPU  (      11 calls)
     addusd:skk   :      0.00s CPU      0.00s WALL (      33 calls)
                                        0.00s GPU  (      33 calls)

     Called by *egterg:
     cdiaghg      :      1.20s CPU      1.27s WALL (    1614 calls)
     cegterg:over :      1.05s CPU      1.10s WALL (    1306 calls)
     cegterg:upda :      0.34s CPU      0.36s WALL (    1306 calls)
     cegterg:last :      0.80s CPU      0.84s WALL (     684 calls)
     h_psi        :      5.75s CPU      6.07s WALL (    1642 calls)
     s_psi        :      0.69s CPU      0.72s WALL (    1642 calls)
     g_psi        :      0.01s CPU      0.01s WALL (    1306 calls)

     Called by h_psi:
     h_psi:calbec :      0.92s CPU      0.99s WALL (    1642 calls)
     vloc_psi     :      4.11s CPU      4.32s WALL (    1642 calls)
     add_vuspsi   :      0.70s CPU      0.74s WALL (    1642 calls)

     General routines
     calbec       :      1.44s CPU      1.57s WALL (    2090 calls)
     fft          :      0.23s CPU      0.25s WALL (     179 calls)
     ffts         :      0.16s CPU      0.27s WALL (      23 calls)
     fftw         :      4.39s CPU      4.63s WALL (   46962 calls)
     interpolate  :      0.17s CPU      0.29s WALL (      12 calls)

     Parallel routines

     PAW routines
     PAW_pot      :      0.71s CPU      0.80s WALL (      12 calls)
     PAW_symme    :      0.01s CPU      0.01s WALL (      23 calls)

     PWSCF        :     19.04s CPU     20.45s WALL


   This run was terminated on:  18:55:12   7Apr2025            

=------------------------------------------------------------------------------=
   JOB DONE.
=------------------------------------------------------------------------------=
