
     Program PWSCF v.7.3 starts on  7Apr2025 at 18:26:10 

     This program is part of the open-source Quantum ESPRESSO suite
     for quantum simulation of materials; please cite
         "P. Giannozzi et al., J. Phys.:Condens. Matter 21 395502 (2009);
         "P. Giannozzi et al., J. Phys.:Condens. Matter 29 465901 (2017);
         "P. Giannozzi et al., J. Chem. Phys. 152 154105 (2020);
          URL http://www.quantum-espresso.org", 
     in publications or presentations arising from this work. More details at
     http://www.quantum-espresso.org/quote

     Parallel version (MPI), running on    20 processors

     MPI processes distributed on     1 nodes
     27009 MiB available memory on the printing compute node when the environment starts

     Waiting for input...
     Reading input from standard input

     Current dimensions of program PWSCF are:
     Max number of different atomic species (ntypx) = 10
     Max number of k-points (npk) = 120000
     Max angular momentum in pseudopotentials (lmaxx) =  4
     file Ba.pbesol-spn-kjpaw_psl.1.0.0.UPF: wavefunction(s)  5S 6S renormalized
     file O.pbesol-n-kjpaw_psl.0.1.UPF: wavefunction(s)  2P renormalized
     Message from routine setup:
     using ibrav=0 with symmetry is DISCOURAGED, use correct ibrav instead

     R & G space division:  proc/nbgrp/npool/nimage =      20
     Subspace diagonalization in iterative solution of the eigenvalue problem:
     a serial algorithm will be used


     Parallelization info
     --------------------
     sticks:   dense  smooth     PW     G-vecs:    dense   smooth      PW
     Min         225      89     25                11459     2887     435
     Max         226      90     26                11466     2892     438
     Sum        4509    1793    509               229231    57777    8733

     Using Slab Decomposition



     bravais-lattice index     =            0
     lattice parameter (alat)  =       8.4365  a.u.
     unit-cell volume          =     600.4730 (a.u.)^3
     number of atoms/cell      =            5
     number of atomic types    =            3
     number of electrons       =        38.00
     number of Kohn-Sham states=           23
     kinetic-energy cutoff     =      80.0000  Ry
     charge density cutoff     =     800.0000  Ry
     scf convergence threshold =      1.0E-07
     mixing beta               =       0.4000
     number of iterations used =            8  plain     mixing
     Exchange-correlation= SLA  PW   PSX  PSC
                           (   1   4  10   8   0   0   0)

     celldm(1)=   8.436542  celldm(2)=   0.000000  celldm(3)=   0.000000
     celldm(4)=   0.000000  celldm(5)=   0.000000  celldm(6)=   0.000000

     crystal axes: (cart. coord. in units of alat)
               a(1) = (   1.000000   0.000000   0.000000 )  
               a(2) = (   0.000000   1.000000   0.000000 )  
               a(3) = (   0.000000   0.000000   1.000000 )  

     reciprocal axes: (cart. coord. in units 2 pi/alat)
               b(1) = (  1.000000  0.000000  0.000000 )  
               b(2) = (  0.000000  1.000000  0.000000 )  
               b(3) = (  0.000000  0.000000  1.000000 )  


     PseudoPot. # 1 for Ba read from file:
     ./pseudo/Ba.pbesol-spn-kjpaw_psl.1.0.0.UPF
     MD5 check sum: f28c4a63d325c1a0d00fd3a4f19b8d73
     Pseudo is Projector augmented-wave + core cor, Zval = 10.0
     Generated using "atomic" code by A. Dal Corso  v.6.0 svn rev. 13079
     Shape of augmentation charge: PSQ
     Using radial grid of 1251 points,  7 beta functions with: 
                l(1) =   0
                l(2) =   0
                l(3) =   0
                l(4) =   1
                l(5) =   1
                l(6) =   2
                l(7) =   2
     Q(r) pseudized with 0 coefficients 


     PseudoPot. # 2 for Ca read from file:
     ./pseudo/ca_pbesol_v1.uspp.F.UPF
     MD5 check sum: 0533207b58cddeaa036efa5b63902087
     Pseudo is Ultrasoft + core correction, Zval = 10.0
     Generated by new atomic code, or converted to UPF format
     Using radial grid of  845 points,  6 beta functions with: 
                l(1) =   0
                l(2) =   0
                l(3) =   1
                l(4) =   1
                l(5) =   2
                l(6) =   2
     Q(r) pseudized with  8 coefficients,  rinner =    1.500   1.500   1.500
                                                       1.500   1.500

     PseudoPot. # 3 for O  read from file:
     ./pseudo/O.pbesol-n-kjpaw_psl.0.1.UPF
     MD5 check sum: 81d73d1479e654e5638b0319f0d6c2c7
     Pseudo is Projector augmented-wave + core cor, Zval =  6.0
     Generated using "atomic" code by A. Dal Corso  v.6.0 svn rev. 13079
     Shape of augmentation charge: BESSEL
     Using radial grid of 1095 points,  4 beta functions with: 
                l(1) =   0
                l(2) =   0
                l(3) =   1
                l(4) =   1
     Q(r) pseudized with 0 coefficients 


     atomic species   valence    mass     pseudopotential
     Ba               10.00   137.32700     Ba( 1.00)
     Ca               10.00    40.07800     Ca( 1.00)
     O                 6.00    15.99940     O ( 1.00)

     48 Sym. Ops., with inversion, found


                                    s                        frac. trans.

      isym =  1     identity                                     

 cryst.   s( 1) = (     1          0          0      )
                  (     0          1          0      )
                  (     0          0          1      )

 cart.    s( 1) = (  1.0000000  0.0000000  0.0000000 )
                  (  0.0000000  1.0000000  0.0000000 )
                  (  0.0000000  0.0000000  1.0000000 )


      isym =  2     180 deg rotation - cart. axis [0,0,1]        

 cryst.   s( 2) = (    -1          0          0      )
                  (     0         -1          0      )
                  (     0          0          1      )

 cart.    s( 2) = ( -1.0000000  0.0000000  0.0000000 )
                  (  0.0000000 -1.0000000  0.0000000 )
                  (  0.0000000  0.0000000  1.0000000 )


      isym =  3     180 deg rotation - cart. axis [0,1,0]        

 cryst.   s( 3) = (    -1          0          0      )
                  (     0          1          0      )
                  (     0          0         -1      )

 cart.    s( 3) = ( -1.0000000  0.0000000  0.0000000 )
                  (  0.0000000  1.0000000  0.0000000 )
                  (  0.0000000  0.0000000 -1.0000000 )


      isym =  4     180 deg rotation - cart. axis [1,0,0]        

 cryst.   s( 4) = (     1          0          0      )
                  (     0         -1          0      )
                  (     0          0         -1      )

 cart.    s( 4) = (  1.0000000  0.0000000  0.0000000 )
                  (  0.0000000 -1.0000000  0.0000000 )
                  (  0.0000000  0.0000000 -1.0000000 )


      isym =  5     180 deg rotation - cart. axis [1,1,0]        

 cryst.   s( 5) = (     0          1          0      )
                  (     1          0          0      )
                  (     0          0         -1      )

 cart.    s( 5) = (  0.0000000  1.0000000  0.0000000 )
                  (  1.0000000  0.0000000  0.0000000 )
                  (  0.0000000  0.0000000 -1.0000000 )


      isym =  6     180 deg rotation - cart. axis [1,-1,0]       

 cryst.   s( 6) = (     0         -1          0      )
                  (    -1          0          0      )
                  (     0          0         -1      )

 cart.    s( 6) = (  0.0000000 -1.0000000  0.0000000 )
                  ( -1.0000000  0.0000000  0.0000000 )
                  (  0.0000000  0.0000000 -1.0000000 )


      isym =  7      90 deg rotation - cart. axis [0,0,-1]       

 cryst.   s( 7) = (     0         -1          0      )
                  (     1          0          0      )
                  (     0          0          1      )

 cart.    s( 7) = (  0.0000000  1.0000000  0.0000000 )
                  ( -1.0000000  0.0000000  0.0000000 )
                  (  0.0000000  0.0000000  1.0000000 )


      isym =  8      90 deg rotation - cart. axis [0,0,1]        

 cryst.   s( 8) = (     0          1          0      )
                  (    -1          0          0      )
                  (     0          0          1      )

 cart.    s( 8) = (  0.0000000 -1.0000000  0.0000000 )
                  (  1.0000000  0.0000000  0.0000000 )
                  (  0.0000000  0.0000000  1.0000000 )


      isym =  9     180 deg rotation - cart. axis [1,0,1]        

 cryst.   s( 9) = (     0          0          1      )
                  (     0         -1          0      )
                  (     1          0          0      )

 cart.    s( 9) = (  0.0000000  0.0000000  1.0000000 )
                  (  0.0000000 -1.0000000  0.0000000 )
                  (  1.0000000  0.0000000  0.0000000 )


      isym = 10     180 deg rotation - cart. axis [-1,0,1]       

 cryst.   s(10) = (     0          0         -1      )
                  (     0         -1          0      )
                  (    -1          0          0      )

 cart.    s(10) = (  0.0000000  0.0000000 -1.0000000 )
                  (  0.0000000 -1.0000000  0.0000000 )
                  ( -1.0000000  0.0000000  0.0000000 )


      isym = 11      90 deg rotation - cart. axis [0,1,0]        

 cryst.   s(11) = (     0          0         -1      )
                  (     0          1          0      )
                  (     1          0          0      )

 cart.    s(11) = (  0.0000000  0.0000000  1.0000000 )
                  (  0.0000000  1.0000000  0.0000000 )
                  ( -1.0000000  0.0000000  0.0000000 )


      isym = 12      90 deg rotation - cart. axis [0,-1,0]       

 cryst.   s(12) = (     0          0          1      )
                  (     0          1          0      )
                  (    -1          0          0      )

 cart.    s(12) = (  0.0000000  0.0000000 -1.0000000 )
                  (  0.0000000  1.0000000  0.0000000 )
                  (  1.0000000  0.0000000  0.0000000 )


      isym = 13     180 deg rotation - cart. axis [0,1,1]        

 cryst.   s(13) = (    -1          0          0      )
                  (     0          0          1      )
                  (     0          1          0      )

 cart.    s(13) = ( -1.0000000  0.0000000  0.0000000 )
                  (  0.0000000  0.0000000  1.0000000 )
                  (  0.0000000  1.0000000  0.0000000 )


      isym = 14     180 deg rotation - cart. axis [0,1,-1]       

 cryst.   s(14) = (    -1          0          0      )
                  (     0          0         -1      )
                  (     0         -1          0      )

 cart.    s(14) = ( -1.0000000  0.0000000  0.0000000 )
                  (  0.0000000  0.0000000 -1.0000000 )
                  (  0.0000000 -1.0000000  0.0000000 )


      isym = 15      90 deg rotation - cart. axis [-1,0,0]       

 cryst.   s(15) = (     1          0          0      )
                  (     0          0         -1      )
                  (     0          1          0      )

 cart.    s(15) = (  1.0000000  0.0000000  0.0000000 )
                  (  0.0000000  0.0000000  1.0000000 )
                  (  0.0000000 -1.0000000  0.0000000 )


      isym = 16      90 deg rotation - cart. axis [1,0,0]        

 cryst.   s(16) = (     1          0          0      )
                  (     0          0          1      )
                  (     0         -1          0      )

 cart.    s(16) = (  1.0000000  0.0000000  0.0000000 )
                  (  0.0000000  0.0000000 -1.0000000 )
                  (  0.0000000  1.0000000  0.0000000 )


      isym = 17     120 deg rotation - cart. axis [-1,-1,-1]     

 cryst.   s(17) = (     0          0          1      )
                  (     1          0          0      )
                  (     0          1          0      )

 cart.    s(17) = (  0.0000000  1.0000000  0.0000000 )
                  (  0.0000000  0.0000000  1.0000000 )
                  (  1.0000000  0.0000000  0.0000000 )


      isym = 18     120 deg rotation - cart. axis [-1,1,1]       

 cryst.   s(18) = (     0          0         -1      )
                  (    -1          0          0      )
                  (     0          1          0      )

 cart.    s(18) = (  0.0000000 -1.0000000  0.0000000 )
                  (  0.0000000  0.0000000  1.0000000 )
                  ( -1.0000000  0.0000000  0.0000000 )


      isym = 19     120 deg rotation - cart. axis [1,1,-1]       

 cryst.   s(19) = (     0          0         -1      )
                  (     1          0          0      )
                  (     0         -1          0      )

 cart.    s(19) = (  0.0000000  1.0000000  0.0000000 )
                  (  0.0000000  0.0000000 -1.0000000 )
                  ( -1.0000000  0.0000000  0.0000000 )


      isym = 20     120 deg rotation - cart. axis [1,-1,1]       

 cryst.   s(20) = (     0          0          1      )
                  (    -1          0          0      )
                  (     0         -1          0      )

 cart.    s(20) = (  0.0000000 -1.0000000  0.0000000 )
                  (  0.0000000  0.0000000 -1.0000000 )
                  (  1.0000000  0.0000000  0.0000000 )


      isym = 21     120 deg rotation - cart. axis [1,1,1]        

 cryst.   s(21) = (     0          1          0      )
                  (     0          0          1      )
                  (     1          0          0      )

 cart.    s(21) = (  0.0000000  0.0000000  1.0000000 )
                  (  1.0000000  0.0000000  0.0000000 )
                  (  0.0000000  1.0000000  0.0000000 )


      isym = 22     120 deg rotation - cart. axis [-1,1,-1]      

 cryst.   s(22) = (     0         -1          0      )
                  (     0          0         -1      )
                  (     1          0          0      )

 cart.    s(22) = (  0.0000000  0.0000000  1.0000000 )
                  ( -1.0000000  0.0000000  0.0000000 )
                  (  0.0000000 -1.0000000  0.0000000 )


      isym = 23     120 deg rotation - cart. axis [1,-1,-1]      

 cryst.   s(23) = (     0         -1          0      )
                  (     0          0          1      )
                  (    -1          0          0      )

 cart.    s(23) = (  0.0000000  0.0000000 -1.0000000 )
                  ( -1.0000000  0.0000000  0.0000000 )
                  (  0.0000000  1.0000000  0.0000000 )


      isym = 24     120 deg rotation - cart. axis [-1,-1,1]      

 cryst.   s(24) = (     0          1          0      )
                  (     0          0         -1      )
                  (    -1          0          0      )

 cart.    s(24) = (  0.0000000  0.0000000 -1.0000000 )
                  (  1.0000000  0.0000000  0.0000000 )
                  (  0.0000000 -1.0000000  0.0000000 )


      isym = 25     inversion                                    

 cryst.   s(25) = (    -1          0          0      )
                  (     0         -1          0      )
                  (     0          0         -1      )

 cart.    s(25) = ( -1.0000000  0.0000000  0.0000000 )
                  (  0.0000000 -1.0000000  0.0000000 )
                  (  0.0000000  0.0000000 -1.0000000 )


      isym = 26     inv. 180 deg rotation - cart. axis [0,0,1]   

 cryst.   s(26) = (     1          0          0      )
                  (     0          1          0      )
                  (     0          0         -1      )

 cart.    s(26) = (  1.0000000  0.0000000  0.0000000 )
                  (  0.0000000  1.0000000  0.0000000 )
                  (  0.0000000  0.0000000 -1.0000000 )


      isym = 27     inv. 180 deg rotation - cart. axis [0,1,0]   

 cryst.   s(27) = (     1          0          0      )
                  (     0         -1          0      )
                  (     0          0          1      )

 cart.    s(27) = (  1.0000000  0.0000000  0.0000000 )
                  (  0.0000000 -1.0000000  0.0000000 )
                  (  0.0000000  0.0000000  1.0000000 )


      isym = 28     inv. 180 deg rotation - cart. axis [1,0,0]   

 cryst.   s(28) = (    -1          0          0      )
                  (     0          1          0      )
                  (     0          0          1      )

 cart.    s(28) = ( -1.0000000  0.0000000  0.0000000 )
                  (  0.0000000  1.0000000  0.0000000 )
                  (  0.0000000  0.0000000  1.0000000 )


      isym = 29     inv. 180 deg rotation - cart. axis [1,1,0]   

 cryst.   s(29) = (     0         -1          0      )
                  (    -1          0          0      )
                  (     0          0          1      )

 cart.    s(29) = (  0.0000000 -1.0000000  0.0000000 )
                  ( -1.0000000  0.0000000  0.0000000 )
                  (  0.0000000  0.0000000  1.0000000 )


      isym = 30     inv. 180 deg rotation - cart. axis [1,-1,0]  

 cryst.   s(30) = (     0          1          0      )
                  (     1          0          0      )
                  (     0          0          1      )

 cart.    s(30) = (  0.0000000  1.0000000  0.0000000 )
                  (  1.0000000  0.0000000  0.0000000 )
                  (  0.0000000  0.0000000  1.0000000 )


      isym = 31     inv.  90 deg rotation - cart. axis [0,0,-1]  

 cryst.   s(31) = (     0          1          0      )
                  (    -1          0          0      )
                  (     0          0         -1      )

 cart.    s(31) = (  0.0000000 -1.0000000  0.0000000 )
                  (  1.0000000  0.0000000  0.0000000 )
                  (  0.0000000  0.0000000 -1.0000000 )


      isym = 32     inv.  90 deg rotation - cart. axis [0,0,1]   

 cryst.   s(32) = (     0         -1          0      )
                  (     1          0          0      )
                  (     0          0         -1      )

 cart.    s(32) = (  0.0000000  1.0000000  0.0000000 )
                  ( -1.0000000  0.0000000  0.0000000 )
                  (  0.0000000  0.0000000 -1.0000000 )


      isym = 33     inv. 180 deg rotation - cart. axis [1,0,1]   

 cryst.   s(33) = (     0          0         -1      )
                  (     0          1          0      )
                  (    -1          0          0      )

 cart.    s(33) = (  0.0000000  0.0000000 -1.0000000 )
                  (  0.0000000  1.0000000  0.0000000 )
                  ( -1.0000000  0.0000000  0.0000000 )


      isym = 34     inv. 180 deg rotation - cart. axis [-1,0,1]  

 cryst.   s(34) = (     0          0          1      )
                  (     0          1          0      )
                  (     1          0          0      )

 cart.    s(34) = (  0.0000000  0.0000000  1.0000000 )
                  (  0.0000000  1.0000000  0.0000000 )
                  (  1.0000000  0.0000000  0.0000000 )


      isym = 35     inv.  90 deg rotation - cart. axis [0,1,0]   

 cryst.   s(35) = (     0          0          1      )
                  (     0         -1          0      )
                  (    -1          0          0      )

 cart.    s(35) = (  0.0000000  0.0000000 -1.0000000 )
                  (  0.0000000 -1.0000000  0.0000000 )
                  (  1.0000000  0.0000000  0.0000000 )


      isym = 36     inv.  90 deg rotation - cart. axis [0,-1,0]  

 cryst.   s(36) = (     0          0         -1      )
                  (     0         -1          0      )
                  (     1          0          0      )

 cart.    s(36) = (  0.0000000  0.0000000  1.0000000 )
                  (  0.0000000 -1.0000000  0.0000000 )
                  ( -1.0000000  0.0000000  0.0000000 )


      isym = 37     inv. 180 deg rotation - cart. axis [0,1,1]   

 cryst.   s(37) = (     1          0          0      )
                  (     0          0         -1      )
                  (     0         -1          0      )

 cart.    s(37) = (  1.0000000  0.0000000  0.0000000 )
                  (  0.0000000  0.0000000 -1.0000000 )
                  (  0.0000000 -1.0000000  0.0000000 )


      isym = 38     inv. 180 deg rotation - cart. axis [0,1,-1]  

 cryst.   s(38) = (     1          0          0      )
                  (     0          0          1      )
                  (     0          1          0      )

 cart.    s(38) = (  1.0000000  0.0000000  0.0000000 )
                  (  0.0000000  0.0000000  1.0000000 )
                  (  0.0000000  1.0000000  0.0000000 )


      isym = 39     inv.  90 deg rotation - cart. axis [-1,0,0]  

 cryst.   s(39) = (    -1          0          0      )
                  (     0          0          1      )
                  (     0         -1          0      )

 cart.    s(39) = ( -1.0000000  0.0000000  0.0000000 )
                  (  0.0000000  0.0000000 -1.0000000 )
                  (  0.0000000  1.0000000  0.0000000 )


      isym = 40     inv.  90 deg rotation - cart. axis [1,0,0]   

 cryst.   s(40) = (    -1          0          0      )
                  (     0          0         -1      )
                  (     0          1          0      )

 cart.    s(40) = ( -1.0000000  0.0000000  0.0000000 )
                  (  0.0000000  0.0000000  1.0000000 )
                  (  0.0000000 -1.0000000  0.0000000 )


      isym = 41     inv. 120 deg rotation - cart. axis [-1,-1,-1]

 cryst.   s(41) = (     0          0         -1      )
                  (    -1          0          0      )
                  (     0         -1          0      )

 cart.    s(41) = (  0.0000000 -1.0000000  0.0000000 )
                  (  0.0000000  0.0000000 -1.0000000 )
                  ( -1.0000000  0.0000000  0.0000000 )


      isym = 42     inv. 120 deg rotation - cart. axis [-1,1,1]  

 cryst.   s(42) = (     0          0          1      )
                  (     1          0          0      )
                  (     0         -1          0      )

 cart.    s(42) = (  0.0000000  1.0000000  0.0000000 )
                  (  0.0000000  0.0000000 -1.0000000 )
                  (  1.0000000  0.0000000  0.0000000 )


      isym = 43     inv. 120 deg rotation - cart. axis [1,1,-1]  

 cryst.   s(43) = (     0          0          1      )
                  (    -1          0          0      )
                  (     0          1          0      )

 cart.    s(43) = (  0.0000000 -1.0000000  0.0000000 )
                  (  0.0000000  0.0000000  1.0000000 )
                  (  1.0000000  0.0000000  0.0000000 )


      isym = 44     inv. 120 deg rotation - cart. axis [1,-1,1]  

 cryst.   s(44) = (     0          0         -1      )
                  (     1          0          0      )
                  (     0          1          0      )

 cart.    s(44) = (  0.0000000  1.0000000  0.0000000 )
                  (  0.0000000  0.0000000  1.0000000 )
                  ( -1.0000000  0.0000000  0.0000000 )


      isym = 45     inv. 120 deg rotation - cart. axis [1,1,1]   

 cryst.   s(45) = (     0         -1          0      )
                  (     0          0         -1      )
                  (    -1          0          0      )

 cart.    s(45) = (  0.0000000  0.0000000 -1.0000000 )
                  ( -1.0000000  0.0000000  0.0000000 )
                  (  0.0000000 -1.0000000  0.0000000 )


      isym = 46     inv. 120 deg rotation - cart. axis [-1,1,-1] 

 cryst.   s(46) = (     0          1          0      )
                  (     0          0          1      )
                  (    -1          0          0      )

 cart.    s(46) = (  0.0000000  0.0000000 -1.0000000 )
                  (  1.0000000  0.0000000  0.0000000 )
                  (  0.0000000  1.0000000  0.0000000 )


      isym = 47     inv. 120 deg rotation - cart. axis [1,-1,-1] 

 cryst.   s(47) = (     0          1          0      )
                  (     0          0         -1      )
                  (     1          0          0      )

 cart.    s(47) = (  0.0000000  0.0000000  1.0000000 )
                  (  1.0000000  0.0000000  0.0000000 )
                  (  0.0000000 -1.0000000  0.0000000 )


      isym = 48     inv. 120 deg rotation - cart. axis [-1,-1,1] 

 cryst.   s(48) = (     0         -1          0      )
                  (     0          0          1      )
                  (     1          0          0      )

 cart.    s(48) = (  0.0000000  0.0000000  1.0000000 )
                  ( -1.0000000  0.0000000  0.0000000 )
                  (  0.0000000  1.0000000  0.0000000 )


   Cartesian axes

     site n.     atom                  positions (alat units)
         1        Ba     tau(   1) = (   0.0000000   0.0000000   0.0000000  )
         2        Ca     tau(   2) = (   0.5000000   0.5000000   0.5000000  )
         3        O      tau(   3) = (   0.5000000   0.5000000   0.0000000  )
         4        O      tau(   4) = (   0.5000000   0.0000000   0.5000000  )
         5        O      tau(   5) = (   0.0000000   0.5000000   0.5000000  )

   Crystallographic axes

     site n.     atom                  positions (cryst. coord.)
         1        Ba     tau(   1) = (  0.0000000  0.0000000  0.0000000  )
         2        Ca     tau(   2) = (  0.5000000  0.5000000  0.5000000  )
         3        O      tau(   3) = (  0.5000000  0.5000000  0.0000000  )
         4        O      tau(   4) = (  0.5000000  0.0000000  0.5000000  )
         5        O      tau(   5) = (  0.0000000  0.5000000  0.5000000  )

     number of k points=    35  Marzari-Vanderbilt smearing, width (Ry)=  0.0200
                       cart. coord. in units 2pi/alat
        k(    1) = (   0.0500000   0.0500000   0.0500000), wk =   0.0160000
        k(    2) = (   0.0500000   0.0500000   0.1500000), wk =   0.0480000
        k(    3) = (   0.0500000   0.0500000   0.2500000), wk =   0.0480000
        k(    4) = (   0.0500000   0.0500000   0.3500000), wk =   0.0480000
        k(    5) = (   0.0500000   0.0500000   0.4500000), wk =   0.0480000
        k(    6) = (   0.0500000   0.1500000   0.1500000), wk =   0.0480000
        k(    7) = (   0.0500000   0.1500000   0.2500000), wk =   0.0960000
        k(    8) = (   0.0500000   0.1500000   0.3500000), wk =   0.0960000
        k(    9) = (   0.0500000   0.1500000   0.4500000), wk =   0.0960000
        k(   10) = (   0.0500000   0.2500000   0.2500000), wk =   0.0480000
        k(   11) = (   0.0500000   0.2500000   0.3500000), wk =   0.0960000
        k(   12) = (   0.0500000   0.2500000   0.4500000), wk =   0.0960000
        k(   13) = (   0.0500000   0.3500000   0.3500000), wk =   0.0480000
        k(   14) = (   0.0500000   0.3500000   0.4500000), wk =   0.0960000
        k(   15) = (   0.0500000   0.4500000   0.4500000), wk =   0.0480000
        k(   16) = (   0.1500000   0.1500000   0.1500000), wk =   0.0160000
        k(   17) = (   0.1500000   0.1500000   0.2500000), wk =   0.0480000
        k(   18) = (   0.1500000   0.1500000   0.3500000), wk =   0.0480000
        k(   19) = (   0.1500000   0.1500000   0.4500000), wk =   0.0480000
        k(   20) = (   0.1500000   0.2500000   0.2500000), wk =   0.0480000
        k(   21) = (   0.1500000   0.2500000   0.3500000), wk =   0.0960000
        k(   22) = (   0.1500000   0.2500000   0.4500000), wk =   0.0960000
        k(   23) = (   0.1500000   0.3500000   0.3500000), wk =   0.0480000
        k(   24) = (   0.1500000   0.3500000   0.4500000), wk =   0.0960000
        k(   25) = (   0.1500000   0.4500000   0.4500000), wk =   0.0480000
        k(   26) = (   0.2500000   0.2500000   0.2500000), wk =   0.0160000
        k(   27) = (   0.2500000   0.2500000   0.3500000), wk =   0.0480000
        k(   28) = (   0.2500000   0.2500000   0.4500000), wk =   0.0480000
        k(   29) = (   0.2500000   0.3500000   0.3500000), wk =   0.0480000
        k(   30) = (   0.2500000   0.3500000   0.4500000), wk =   0.0960000
        k(   31) = (   0.2500000   0.4500000   0.4500000), wk =   0.0480000
        k(   32) = (   0.3500000   0.3500000   0.3500000), wk =   0.0160000
        k(   33) = (   0.3500000   0.3500000   0.4500000), wk =   0.0480000
        k(   34) = (   0.3500000   0.4500000   0.4500000), wk =   0.0480000
        k(   35) = (   0.4500000   0.4500000   0.4500000), wk =   0.0160000

                       cryst. coord.
        k(    1) = (   0.0500000   0.0500000   0.0500000), wk =   0.0160000
        k(    2) = (   0.0500000   0.0500000   0.1500000), wk =   0.0480000
        k(    3) = (   0.0500000   0.0500000   0.2500000), wk =   0.0480000
        k(    4) = (   0.0500000   0.0500000   0.3500000), wk =   0.0480000
        k(    5) = (   0.0500000   0.0500000   0.4500000), wk =   0.0480000
        k(    6) = (   0.0500000   0.1500000   0.1500000), wk =   0.0480000
        k(    7) = (   0.0500000   0.1500000   0.2500000), wk =   0.0960000
        k(    8) = (   0.0500000   0.1500000   0.3500000), wk =   0.0960000
        k(    9) = (   0.0500000   0.1500000   0.4500000), wk =   0.0960000
        k(   10) = (   0.0500000   0.2500000   0.2500000), wk =   0.0480000
        k(   11) = (   0.0500000   0.2500000   0.3500000), wk =   0.0960000
        k(   12) = (   0.0500000   0.2500000   0.4500000), wk =   0.0960000
        k(   13) = (   0.0500000   0.3500000   0.3500000), wk =   0.0480000
        k(   14) = (   0.0500000   0.3500000   0.4500000), wk =   0.0960000
        k(   15) = (   0.0500000   0.4500000   0.4500000), wk =   0.0480000
        k(   16) = (   0.1500000   0.1500000   0.1500000), wk =   0.0160000
        k(   17) = (   0.1500000   0.1500000   0.2500000), wk =   0.0480000
        k(   18) = (   0.1500000   0.1500000   0.3500000), wk =   0.0480000
        k(   19) = (   0.1500000   0.1500000   0.4500000), wk =   0.0480000
        k(   20) = (   0.1500000   0.2500000   0.2500000), wk =   0.0480000
        k(   21) = (   0.1500000   0.2500000   0.3500000), wk =   0.0960000
        k(   22) = (   0.1500000   0.2500000   0.4500000), wk =   0.0960000
        k(   23) = (   0.1500000   0.3500000   0.3500000), wk =   0.0480000
        k(   24) = (   0.1500000   0.3500000   0.4500000), wk =   0.0960000
        k(   25) = (   0.1500000   0.4500000   0.4500000), wk =   0.0480000
        k(   26) = (   0.2500000   0.2500000   0.2500000), wk =   0.0160000
        k(   27) = (   0.2500000   0.2500000   0.3500000), wk =   0.0480000
        k(   28) = (   0.2500000   0.2500000   0.4500000), wk =   0.0480000
        k(   29) = (   0.2500000   0.3500000   0.3500000), wk =   0.0480000
        k(   30) = (   0.2500000   0.3500000   0.4500000), wk =   0.0960000
        k(   31) = (   0.2500000   0.4500000   0.4500000), wk =   0.0480000
        k(   32) = (   0.3500000   0.3500000   0.3500000), wk =   0.0160000
        k(   33) = (   0.3500000   0.3500000   0.4500000), wk =   0.0480000
        k(   34) = (   0.3500000   0.4500000   0.4500000), wk =   0.0480000
        k(   35) = (   0.4500000   0.4500000   0.4500000), wk =   0.0160000

     Dense  grid:   229231 G-vectors     FFT dimensions: (  75,  75,  75)

     Smooth grid:    57777 G-vectors     FFT dimensions: (  50,  50,  50)

     Dynamical RAM for                 wfc:       0.13 MB

     Dynamical RAM for     wfc (w. buffer):       4.57 MB

     Dynamical RAM for           str. fact:       0.52 MB

     Dynamical RAM for           local pot:       0.00 MB

     Dynamical RAM for          nlocal pot:       0.34 MB

     Dynamical RAM for                qrad:       9.07 MB

     Dynamical RAM for          rho,v,vnew:       1.04 MB

     Dynamical RAM for               rhoin:       0.35 MB

     Dynamical RAM for            rho*nmix:       2.80 MB

     Dynamical RAM for           G-vectors:       0.68 MB

     Dynamical RAM for          h,s,v(r/c):       0.10 MB

     Dynamical RAM for          <psi|beta>:       0.02 MB

     Dynamical RAM for                 psi:       0.25 MB

     Dynamical RAM for                hpsi:       0.25 MB

     Dynamical RAM for                spsi:       0.25 MB

     Dynamical RAM for      wfcinit/wfcrot:       0.32 MB

     Dynamical RAM for           addusdens:      36.38 MB

     Dynamical RAM for          addusforce:      37.18 MB

     Dynamical RAM for         addusstress:      38.47 MB

     Estimated static dynamical RAM per process >      18.13 MB

     Estimated max dynamical RAM per process >      59.40 MB

     Estimated total dynamical RAM >       1.16 GB

     Initial potential from superposition of free atoms

     starting charge      37.9791, renormalised to      38.0000
     Starting wfcs are   27 randomized atomic wfcs
     Checking if some PAW data can be deallocated... 
       PAW data deallocated on   16 nodes for type:  1
       PAW data deallocated on    8 nodes for type:  3

     total cpu time spent up to now is        2.0 secs

     Self-consistent Calculation

     iteration #  1     ecut=    80.00 Ry     beta= 0.40
     Davidson diagonalization with overlap

---- Real-time Memory Report at c_bands before calling an iterative solver
            87 MiB given to the printing process from OS
             0 MiB allocation reported by mallinfo(arena+hblkhd)
         25642 MiB available memory on the node where the printing process lives
------------------
     ethr =  1.00E-02,  avg # of iterations =  3.0

     total cpu time spent up to now is        3.7 secs

     total energy              =    -628.10630145 Ry
     estimated scf accuracy    <       0.66759756 Ry

     iteration #  2     ecut=    80.00 Ry     beta= 0.40
     Davidson diagonalization with overlap

---- Real-time Memory Report at c_bands before calling an iterative solver
           126 MiB given to the printing process from OS
             0 MiB allocation reported by mallinfo(arena+hblkhd)
         24931 MiB available memory on the node where the printing process lives
------------------
     ethr =  1.76E-03,  avg # of iterations =  5.0

     total cpu time spent up to now is        5.9 secs

     total energy              =    -628.28990751 Ry
     estimated scf accuracy    <       0.05632365 Ry

     iteration #  3     ecut=    80.00 Ry     beta= 0.40
     Davidson diagonalization with overlap

---- Real-time Memory Report at c_bands before calling an iterative solver
           127 MiB given to the printing process from OS
             0 MiB allocation reported by mallinfo(arena+hblkhd)
         24914 MiB available memory on the node where the printing process lives
------------------
     c_bands:  1 eigenvalues not converged
     ethr =  1.48E-04,  avg # of iterations = 10.5

     total cpu time spent up to now is        8.5 secs

     total energy              =    -628.29664082 Ry
     estimated scf accuracy    <       0.00936765 Ry

     iteration #  4     ecut=    80.00 Ry     beta= 0.40
     Davidson diagonalization with overlap

---- Real-time Memory Report at c_bands before calling an iterative solver
           127 MiB given to the printing process from OS
             0 MiB allocation reported by mallinfo(arena+hblkhd)
         24951 MiB available memory on the node where the printing process lives
------------------
     ethr =  2.47E-05,  avg # of iterations =  5.2

     total cpu time spent up to now is       11.9 secs

     total energy              =    -628.29815526 Ry
     estimated scf accuracy    <       0.00207497 Ry

     iteration #  5     ecut=    80.00 Ry     beta= 0.40
     Davidson diagonalization with overlap

---- Real-time Memory Report at c_bands before calling an iterative solver
           127 MiB given to the printing process from OS
             0 MiB allocation reported by mallinfo(arena+hblkhd)
         25020 MiB available memory on the node where the printing process lives
------------------
     ethr =  5.46E-06,  avg # of iterations =  5.1

     total cpu time spent up to now is       14.1 secs

     total energy              =    -628.29854126 Ry
     estimated scf accuracy    <       0.00015521 Ry

     iteration #  6     ecut=    80.00 Ry     beta= 0.40
     Davidson diagonalization with overlap

---- Real-time Memory Report at c_bands before calling an iterative solver
           127 MiB given to the printing process from OS
             0 MiB allocation reported by mallinfo(arena+hblkhd)
         25021 MiB available memory on the node where the printing process lives
------------------
     ethr =  4.08E-07,  avg # of iterations =  2.1

     total cpu time spent up to now is       15.9 secs

     total energy              =    -628.29856692 Ry
     estimated scf accuracy    <       0.00001912 Ry

     iteration #  7     ecut=    80.00 Ry     beta= 0.40
     Davidson diagonalization with overlap

---- Real-time Memory Report at c_bands before calling an iterative solver
           127 MiB given to the printing process from OS
             0 MiB allocation reported by mallinfo(arena+hblkhd)
         25048 MiB available memory on the node where the printing process lives
------------------
     ethr =  5.03E-08,  avg # of iterations =  4.3

     total cpu time spent up to now is       18.6 secs

     total energy              =    -628.29855759 Ry
     estimated scf accuracy    <       0.00005594 Ry

     iteration #  8     ecut=    80.00 Ry     beta= 0.40
     Davidson diagonalization with overlap

---- Real-time Memory Report at c_bands before calling an iterative solver
           127 MiB given to the printing process from OS
             0 MiB allocation reported by mallinfo(arena+hblkhd)
         25050 MiB available memory on the node where the printing process lives
------------------
     ethr =  5.03E-08,  avg # of iterations =  4.0

     total cpu time spent up to now is       22.6 secs

     total energy              =    -628.29857650 Ry
     estimated scf accuracy    <       0.00001213 Ry

     iteration #  9     ecut=    80.00 Ry     beta= 0.40
     Davidson diagonalization with overlap

---- Real-time Memory Report at c_bands before calling an iterative solver
           127 MiB given to the printing process from OS
             0 MiB allocation reported by mallinfo(arena+hblkhd)
         24906 MiB available memory on the node where the printing process lives
------------------
     ethr =  3.19E-08,  avg # of iterations =  1.4

     total cpu time spent up to now is       25.8 secs

     total energy              =    -628.29857629 Ry
     estimated scf accuracy    <       0.00000419 Ry

     iteration # 10     ecut=    80.00 Ry     beta= 0.40
     Davidson diagonalization with overlap

---- Real-time Memory Report at c_bands before calling an iterative solver
           127 MiB given to the printing process from OS
             0 MiB allocation reported by mallinfo(arena+hblkhd)
         24969 MiB available memory on the node where the printing process lives
------------------
     ethr =  1.10E-08,  avg # of iterations =  2.0

     total cpu time spent up to now is       29.2 secs

     total energy              =    -628.29857613 Ry
     estimated scf accuracy    <       0.00000124 Ry

     iteration # 11     ecut=    80.00 Ry     beta= 0.40
     Davidson diagonalization with overlap

---- Real-time Memory Report at c_bands before calling an iterative solver
           127 MiB given to the printing process from OS
             0 MiB allocation reported by mallinfo(arena+hblkhd)
         24971 MiB available memory on the node where the printing process lives
------------------
     ethr =  3.26E-09,  avg # of iterations =  2.1

     total cpu time spent up to now is       31.6 secs

     End of self-consistent calculation

          k = 0.0500 0.0500 0.0500 (  7186 PWs)   bands (ev):

   -30.3723 -20.0268 -11.7438 -11.7425 -11.7425  -9.8902  -9.5688  -9.5688
    -5.0745  -5.0745  -5.0620   4.4989   4.5672   4.5672   5.0080   5.0080
     5.0785   5.6800   5.7300   5.7300  10.3641  10.3642  10.7061

     occupation numbers 
     1.0000   1.0000   1.0000   1.0000   1.0000   1.0000   1.0000   1.0000
     1.0000   1.0000   1.0000   1.0000   1.0002   1.0002   1.0592   1.0592
     1.0796   0.0872   0.0496   0.0496   0.0000   0.0000   0.0000

          k = 0.0500 0.0500 0.1500 (  7221 PWs)   bands (ev):

   -30.3716 -20.0238 -11.9020 -11.7425 -11.7410  -9.8514  -9.5665  -9.3993
    -5.0759  -5.0694  -5.0451   4.3808   4.5456   4.5623   4.8707   4.9416
     5.0593   5.4127   5.6839   5.6999  10.5743  10.6004  11.0579

     occupation numbers 
     1.0000   1.0000   1.0000   1.0000   1.0000   1.0000   1.0000   1.0000
     1.0000   1.0000   1.0000   1.0000   1.0001   1.0002   1.0188   1.0370
     1.0752   0.6342   0.0836   0.0701   0.0000   0.0000   0.0000

          k = 0.0500 0.0500 0.2500 (  7229 PWs)   bands (ev):

   -30.3704 -20.0188 -12.1111 -11.7410 -11.7386  -9.8575  -9.5628  -9.1005
    -5.0673  -5.0611  -5.0285   4.2292   4.5025   4.5080   4.7114   4.8120
     4.9879   5.0315   5.6356   5.6534  10.9266  10.9790  11.7210

     occupation numbers 
     1.0000   1.0000   1.0000   1.0000   1.0000   1.0000   1.0000   1.0000
     1.0000   1.0000   1.0000   1.0000   1.0000   1.0001   1.0023   1.0095
     1.0523   1.0671   0.1366   0.1147   0.0000   0.0000   0.0000

          k = 0.0500 0.0500 0.3500 (  7242 PWs)   bands (ev):

   -30.3692 -20.0138 -12.2843 -11.7395 -11.7362  -9.8817  -9.5590  -8.8144
    -5.0528  -5.0525  -5.0183   4.0917   4.4191   4.4466   4.5211   4.5815
     4.8749   4.9149   5.5893   5.6096  11.2996  11.3728  12.2699

     occupation numbers 
     1.0000   1.0000   1.0000   1.0000   1.0000   1.0000   1.0000   1.0000
     1.0000   1.0000   1.0000   1.0000   1.0000   1.0000   1.0001   1.0002
     1.0197   1.0293   0.2070   0.1737   0.0000   0.0000   0.0000

          k = 0.0500 0.0500 0.4500 (  7260 PWs)   bands (ev):

   -30.3685 -20.0108 -12.3792 -11.7386 -11.7347  -9.8992  -9.5567  -8.6444
    -5.0476  -5.0391  -5.0162   4.0060   4.2771   4.3845   4.4050   4.5109
     4.8397   4.8735   5.5614   5.5838  11.5442  11.6326  12.5854

     occupation numbers 
     1.0000   1.0000   1.0000   1.0000   1.0000   1.0000   1.0000   1.0000
     1.0000   1.0000   1.0000   1.0000   1.0000   1.0000   1.0000   1.0001
     1.0133   1.0194   0.2593   0.2168   0.0000   0.0000   0.0000

          k = 0.0500 0.1500 0.1500 (  7232 PWs)   bands (ev):

   -30.3709 -20.0207 -11.9039 -11.8999 -11.7405  -9.7861  -9.4480  -9.3671
    -5.0890  -5.0668  -5.0247   4.2352   4.5324   4.5928   4.7138   4.8642
     5.1125   5.2939   5.5414   5.6602  10.7430  10.8423  11.3031

     occupation numbers 
     1.0000   1.0000   1.0000   1.0000   1.0000   1.0000   1.0000   1.0000
     1.0000   1.0000   1.0000   1.0000   1.0001   1.0003   1.0024   1.0176
     1.0833   0.9251   0.3015   0.1071   0.0000   0.0000   0.0000

          k = 0.0500 0.1500 0.2500 (  7247 PWs)   bands (ev):

   -30.3697 -20.0157 -12.1122 -11.9019 -11.7385  -9.7734  -9.4186  -9.1049
    -5.0924  -5.0594  -5.0128   4.0767   4.4844   4.5286   4.5600   4.7490
     4.9896   5.1384   5.4643   5.6069  11.0462  11.2375  11.7861

     occupation numbers 
     1.0000   1.0000   1.0000   1.0000   1.0000   1.0000   1.0000   1.0000
     1.0000   1.0000   1.0000   1.0000   1.0000   1.0001   1.0002   1.0041
     1.0529   1.0813   0.4923   0.1779   0.0000   0.0000   0.0000

          k = 0.0500 0.1500 0.3500 (  7242 PWs)   bands (ev):

   -30.3685 -20.0107 -12.2861 -11.9019 -11.7365  -9.7846  -9.4175  -8.8218
    -5.0834  -5.0512  -5.0140   3.9600   4.2767   4.4223   4.4927   4.5803
     4.8563   5.1421   5.4026   5.5564  11.4034  11.6321  12.3313

     occupation numbers 
     1.0000   1.0000   1.0000   1.0000   1.0000   1.0000   1.0000   1.0000
     1.0000   1.0000   1.0000   1.0000   1.0000   1.0000   1.0000   1.0002
     1.0161   1.0806   0.6622   0.2695   0.0000   0.0000   0.0000

          k = 0.0500 0.1500 0.4500 (  7258 PWs)   bands (ev):

   -30.3678 -20.0077 -12.3813 -11.9020 -11.7352  -9.7949  -9.4174  -8.6524
    -5.0701  -5.0434  -5.0253   3.9315   4.0380   4.3736   4.4533   4.4905
     4.8192   5.1598   5.3521   5.5266  11.6582  11.8907  12.6432

     occupation numbers 
     1.0000   1.0000   1.0000   1.0000   1.0000   1.0000   1.0000   1.0000
     1.0000   1.0000   1.0000   1.0000   1.0000   1.0000   1.0000   1.0000
     1.0104   1.0756   0.7954   0.3346   0.0000   0.0000   0.0000

          k = 0.0500 0.2500 0.2500 (  7252 PWs)   bands (ev):

   -30.3685 -20.0107 -12.1157 -12.1122 -11.7365  -9.7386  -9.1602  -9.0823
    -5.1114  -5.0550  -5.0104   3.8931   4.3181   4.4748   4.5499   4.6746
     4.8850   5.1171   5.3969   5.5426  11.2729  11.6951  11.9810

     occupation numbers 
     1.0000   1.0000   1.0000   1.0000   1.0000   1.0000   1.0000   1.0000
     1.0000   1.0000   1.0000   1.0000   1.0000   1.0000   1.0001   1.0013
     1.0219   1.0833   0.6778   0.2988   0.0000   0.0000   0.0000

          k = 0.0500 0.2500 0.3500 (  7263 PWs)   bands (ev):

   -30.3674 -20.0057 -12.2890 -12.1158 -11.7344  -9.7310  -9.1332  -8.8333
    -5.1143  -5.0579  -5.0163   3.7435   4.1103   4.4108   4.4972   4.5563
     4.8216   5.0911   5.4133   5.4814  11.5797  12.1055  12.2764

     occupation numbers 
     1.0000   1.0000   1.0000   1.0000   1.0000   1.0000   1.0000   1.0000
     1.0000   1.0000   1.0000   1.0000   1.0000   1.0000   1.0000   1.0001
     1.0107   1.0817   0.6327   0.4468   0.0000   0.0000   0.0000

          k = 0.0500 0.2500 0.4500 (  7263 PWs)   bands (ev):

   -30.3666 -20.0026 -12.3849 -12.1170 -11.7332  -9.7301  -9.1365  -8.6654
    -5.1025  -5.0740  -5.0191   3.6712   3.9265   4.3657   4.4682   4.4880
     4.8242   5.0769   5.4181   5.4451  11.8447  12.3247  12.4289

     occupation numbers 
     1.0000   1.0000   1.0000   1.0000   1.0000   1.0000   1.0000   1.0000
     1.0000   1.0000   1.0000   1.0000   1.0000   1.0000   1.0000   1.0000
     1.0111   1.0793   0.6193   0.5447   0.0000   0.0000   0.0000

          k = 0.0500 0.3500 0.3500 (  7262 PWs)   bands (ev):

   -30.3662 -20.0007 -12.2928 -12.2914 -11.7324  -9.7085  -8.8660  -8.8297
    -5.1320  -5.0817  -5.0137   3.5492   3.9588   4.3963   4.4087   4.4851
     4.8227   5.0222   5.4089   5.5250  11.7925  12.1883  12.5770

     occupation numbers 
     1.0000   1.0000   1.0000   1.0000   1.0000   1.0000   1.0000   1.0000
     1.0000   1.0000   1.0000   1.0000   1.0000   1.0000   1.0000   1.0000
     1.0109   1.0640   0.6447   0.3384   0.0000   0.0000   0.0000

          k = 0.0500 0.3500 0.4500 (  7269 PWs)   bands (ev):

   -30.3655 -19.9976 -12.3885 -12.2940 -11.7311  -9.6989  -8.8555  -8.6785
    -5.1308  -5.1099  -5.0101   3.4432   3.8272   4.3423   4.3867   4.4268
     4.8879   4.9846   5.3653   5.5790  11.9753  12.1368  12.7588

     occupation numbers 
     1.0000   1.0000   1.0000   1.0000   1.0000   1.0000   1.0000   1.0000
     1.0000   1.0000   1.0000   1.0000   1.0000   1.0000   1.0000   1.0000
     1.0225   1.0511   0.7619   0.2255   0.0000   0.0000   0.0000

          k = 0.0500 0.4500 0.4500 (  7268 PWs)   bands (ev):

   -30.3648 -19.9945 -12.3908 -12.3906 -11.7299  -9.6843  -8.6892  -8.6846
    -5.1437  -5.1360  -5.0043   3.3214   3.7317   4.2748   4.3642   4.3747
     4.9539   4.9850   5.3157   5.6565  11.8470  12.2530  12.8409

     occupation numbers 
     1.0000   1.0000   1.0000   1.0000   1.0000   1.0000   1.0000   1.0000
     1.0000   1.0000   1.0000   1.0000   1.0000   1.0000   1.0000   1.0000
     1.0409   1.0513   0.8804   0.1112   0.0000   0.0000   0.0000

          k = 0.1500 0.1500 0.1500 (  7214 PWs)   bands (ev):

   -30.3701 -20.0176 -11.9084 -11.8980 -11.8980  -9.6527  -9.3640  -9.3640
    -5.0904  -5.0904  -5.0016   4.0951   4.5629   4.5629   4.7037   4.7037
     5.1687   5.1912   5.5182   5.5182  10.9583  10.9583  11.4866

     occupation numbers 
     1.0000   1.0000   1.0000   1.0000   1.0000   1.0000   1.0000   1.0000
     1.0000   1.0000   1.0000   1.0000   1.0002   1.0002   1.0021   1.0021
     1.0720   1.0592   0.3544   0.3544   0.0000   0.0000   0.0000

          k = 0.1500 0.1500 0.2500 (  7251 PWs)   bands (ev):

   -30.3690 -20.0127 -12.1126 -11.9065 -11.8948  -9.6049  -9.3591  -9.1056
    -5.1005  -5.0927  -4.9921   3.9515   4.4587   4.5038   4.6043   4.6055
     4.9744   5.2157   5.4103   5.4776  11.2117  11.3328  11.8376

     occupation numbers 
     1.0000   1.0000   1.0000   1.0000   1.0000   1.0000   1.0000   1.0000
     1.0000   1.0000   1.0000   1.0000   1.0000   1.0001   1.0004   1.0004
     1.0476   1.0389   0.6410   0.4569   0.0000   0.0000   0.0000

          k = 0.1500 0.1500 0.3500 (  7244 PWs)   bands (ev):

   -30.3678 -20.0077 -12.2869 -11.9084 -11.8917  -9.6102  -9.3541  -8.8260
    -5.0951  -5.0920  -5.0011   3.8637   4.2770   4.3399   4.4111   4.5634
     4.9892   5.2050   5.3199   5.4320  11.5511  11.7139  12.2550

     occupation numbers 
     1.0000   1.0000   1.0000   1.0000   1.0000   1.0000   1.0000   1.0000
     1.0000   1.0000   1.0000   1.0000   1.0000   1.0000   1.0000   1.0002
     1.0527   1.0486   0.8711   0.5809   0.0000   0.0000   0.0000

          k = 0.1500 0.1500 0.4500 (  7273 PWs)   bands (ev):

   -30.3671 -20.0046 -12.3824 -11.9096 -11.8897  -9.6190  -9.3510  -8.6573
    -5.0966  -5.0717  -5.0216   3.8672   4.0006   4.2751   4.3435   4.5390
     5.0696   5.1918   5.2278   5.4015  11.8232  11.9502  12.5270

     occupation numbers 
     1.0000   1.0000   1.0000   1.0000   1.0000   1.0000   1.0000   1.0000
     1.0000   1.0000   1.0000   1.0000   1.0000   1.0000   1.0000   1.0001
     1.0777   1.0588   1.0261   0.6652   0.0000   0.0000   0.0000

          k = 0.1500 0.2500 0.2500 (  7256 PWs)   bands (ev):

   -30.3678 -20.0078 -12.1168 -12.1096 -11.8986  -9.5185  -9.1524  -9.0777
    -5.1233  -5.1042  -4.9910   3.8150   4.3089   4.4437   4.5327   4.6285
     4.8132   5.2498   5.3756   5.4021  11.4323  11.6439  11.9811

     occupation numbers 
     1.0000   1.0000   1.0000   1.0000   1.0000   1.0000   1.0000   1.0000
     1.0000   1.0000   1.0000   1.0000   1.0000   1.0000   1.0001   1.0006
     1.0097   0.9985   0.7350   0.6635   0.0000   0.0000   0.0000

          k = 0.1500 0.2500 0.3500 (  7274 PWs)   bands (ev):

   -30.3666 -20.0028 -12.2884 -12.1140 -11.8969  -9.5051  -9.1221  -8.8325
    -5.1321  -5.1105  -5.0088   3.7249   4.1170   4.3366   4.3752   4.5786
     4.8607   5.2027   5.3426   5.4060  11.7209  11.9914  12.1750

     occupation numbers 
     1.0000   1.0000   1.0000   1.0000   1.0000   1.0000   1.0000   1.0000
     1.0000   1.0000   1.0000   1.0000   1.0000   1.0000   1.0000   1.0002
     1.0169   1.0505   0.8186   0.6528   0.0000   0.0000   0.0000

          k = 0.1500 0.2500 0.4500 (  7269 PWs)   bands (ev):

   -30.3659 -19.9998 -12.3843 -12.1146 -11.8958  -9.5039  -9.1218  -8.6654
    -5.1317  -5.1084  -5.0313   3.7067   3.9090   4.2539   4.3137   4.5618
     4.9577   5.1318   5.3093   5.4162  11.9968  12.2017  12.2824

     occupation numbers 
     1.0000   1.0000   1.0000   1.0000   1.0000   1.0000   1.0000   1.0000
     1.0000   1.0000   1.0000   1.0000   1.0000   1.0000   1.0000   1.0002
     1.0421   1.0823   0.8940   0.6247   0.0000   0.0000   0.0000

          k = 0.1500 0.3500 0.3500 (  7271 PWs)   bands (ev):

   -30.3655 -19.9979 -12.2916 -12.2882 -11.8944  -9.4769  -8.8619  -8.8232
    -5.1546  -5.1295  -5.0294   3.6034   3.9552   4.3182   4.3241   4.4457
     4.8695   5.1797   5.2723   5.5256  11.8747  12.1513  12.2931

     occupation numbers 
     1.0000   1.0000   1.0000   1.0000   1.0000   1.0000   1.0000   1.0000
     1.0000   1.0000   1.0000   1.0000   1.0000   1.0000   1.0000   1.0000
     1.0186   1.0664   0.9639   0.3371   0.0000   0.0000   0.0000

          k = 0.1500 0.3500 0.4500 (  7263 PWs)   bands (ev):

   -30.3648 -19.9949 -12.3862 -12.2909 -11.8928  -9.4670  -8.8473  -8.6737
    -5.1597  -5.1445  -5.0472   3.5419   3.8145   4.2667   4.2837   4.3990
     4.9560   5.1399   5.2320   5.5827  11.9399  12.2268  12.4762

     occupation numbers 
     1.0000   1.0000   1.0000   1.0000   1.0000   1.0000   1.0000   1.0000
     1.0000   1.0000   1.0000   1.0000   1.0000   1.0000   1.0000   1.0000
     1.0415   1.0810   1.0213   0.2187   0.0000   0.0000   0.0000

          k = 0.1500 0.4500 0.4500 (  7251 PWs)   bands (ev):

   -30.3640 -19.9918 -12.3876 -12.3872 -11.8908  -9.4523  -8.6817  -8.6768
    -5.1730  -5.1679  -5.0590   3.4515   3.7242   4.2608   4.2645   4.2877
     5.0320   5.1535   5.1705   5.6640  11.7771  12.4070  12.5392

     occupation numbers 
     1.0000   1.0000   1.0000   1.0000   1.0000   1.0000   1.0000   1.0000
     1.0000   1.0000   1.0000   1.0000   1.0000   1.0000   1.0000   1.0000
     1.0672   1.0777   1.0711   0.1030   0.0000   0.0000   0.0000

          k = 0.2500 0.2500 0.2500 (  7256 PWs)   bands (ev):

   -30.3666 -20.0029 -12.1242 -12.1054 -12.1054  -9.2785  -9.0702  -9.0702
    -5.1428  -5.1428  -4.9999   3.7297   4.2944   4.2944   4.5165   4.6232
     4.6232   5.3262   5.3262   5.3800  11.7047  11.7047  12.0013

     occupation numbers 
     1.0000   1.0000   1.0000   1.0000   1.0000   1.0000   1.0000   1.0000
     1.0000   1.0000   1.0000   1.0000   1.0000   1.0000   1.0001   1.0005
     1.0005   0.8570   0.8570   0.7232   0.0000   0.0000   0.0000

          k = 0.2500 0.2500 0.3500 (  7250 PWs)   bands (ev):

   -30.3655 -19.9981 -12.2875 -12.1193 -12.1012  -9.2284  -9.0627  -8.8307
    -5.1624  -5.1583  -5.0312   3.6887   4.1371   4.1828   4.3096   4.6261
     4.6554   5.2960   5.3238   5.4371  11.9152  11.9510  12.0518

     occupation numbers 
     1.0000   1.0000   1.0000   1.0000   1.0000   1.0000   1.0000   1.0000
     1.0000   1.0000   1.0000   1.0000   1.0000   1.0000   1.0000   1.0006
     1.0009   0.9211   0.8626   0.5667   0.0000   0.0000   0.0000

          k = 0.2500 0.2500 0.4500 (  7268 PWs)   bands (ev):

   -30.3648 -19.9951 -12.3834 -12.1205 -12.0987  -9.2245  -9.0579  -8.6655
    -5.1746  -5.1531  -5.0649   3.7156   3.8822   4.1260   4.2609   4.6289
     4.7022   5.2744   5.3224   5.4582  12.0665  12.0982  12.2249

     occupation numbers 
     1.0000   1.0000   1.0000   1.0000   1.0000   1.0000   1.0000   1.0000
     1.0000   1.0000   1.0000   1.0000   1.0000   1.0000   1.0000   1.0006
     1.0020   0.9605   0.8656   0.5087   0.0000   0.0000   0.0000

          k = 0.2500 0.3500 0.3500 (  7263 PWs)   bands (ev):

   -30.3643 -19.9934 -12.2898 -12.2832 -12.1066  -9.1509  -8.8529  -8.8126
    -5.1913  -5.1873  -5.0726   3.6630   3.9831   4.1973   4.2076   4.4461
     4.6724   5.3155   5.3491   5.5356  11.8967  12.0362  12.0520

     occupation numbers 
     1.0000   1.0000   1.0000   1.0000   1.0000   1.0000   1.0000   1.0000
     1.0000   1.0000   1.0000   1.0000   1.0000   1.0000   1.0000   1.0000
     1.0012   0.8807   0.8028   0.3142   0.0000   0.0000   0.0000

          k = 0.2500 0.3500 0.4500 (  7258 PWs)   bands (ev):

   -30.3636 -19.9905 -12.3825 -12.2860 -12.1048  -9.1387  -8.8327  -8.6659
    -5.2075  -5.1946  -5.1099   3.6797   3.8018   4.1286   4.2055   4.4007
     4.6968   5.3206   5.3640   5.5929  11.8423  12.0696  12.1542

     occupation numbers 
     1.0000   1.0000   1.0000   1.0000   1.0000   1.0000   1.0000   1.0000
     1.0000   1.0000   1.0000   1.0000   1.0000   1.0000   1.0000   1.0000
     1.0019   0.8696   0.7651   0.2008   0.0000   0.0000   0.0000

          k = 0.2500 0.4500 0.4500 (  7248 PWs)   bands (ev):

   -30.3629 -19.9876 -12.3824 -12.3816 -12.1023  -9.1220  -8.6694  -8.6638
    -5.2205  -5.2193  -5.1451   3.6548   3.7034   4.1552   4.1570   4.2836
     4.7139   5.3634   5.3743   5.6765  11.6646  12.1067  12.1079

     occupation numbers 
     1.0000   1.0000   1.0000   1.0000   1.0000   1.0000   1.0000   1.0000
     1.0000   1.0000   1.0000   1.0000   1.0000   1.0000   1.0000   1.0000
     1.0024   0.7667   0.7384   0.0905   0.0000   0.0000   0.0000

          k = 0.3500 0.3500 0.3500 (  7259 PWs)   bands (ev):

   -30.3632 -19.9888 -12.2920 -12.2781 -12.2781  -8.8991  -8.8017  -8.8017
    -5.2281  -5.2281  -5.1308   3.6896   3.9849   4.1039   4.1039   4.4510
     4.4510   5.4455   5.4455   5.5776  11.8100  11.8941  11.8942

     occupation numbers 
     1.0000   1.0000   1.0000   1.0000   1.0000   1.0000   1.0000   1.0000
     1.0000   1.0000   1.0000   1.0000   1.0000   1.0000   1.0000   1.0000
     1.0000   0.5435   0.5435   0.2280   0.0000   0.0000   0.0000

          k = 0.3500 0.3500 0.4500 (  7258 PWs)   bands (ev):

   -30.3625 -19.9860 -12.3789 -12.2861 -12.2749  -8.8654  -8.7949  -8.6580
    -5.2509  -5.2407  -5.1784   3.6934   3.8556   4.0563   4.1274   4.3736
     4.4545   5.4702   5.5244   5.6261  11.7173  11.8222  11.8412

     occupation numbers 
     1.0000   1.0000   1.0000   1.0000   1.0000   1.0000   1.0000   1.0000
     1.0000   1.0000   1.0000   1.0000   1.0000   1.0000   1.0000   1.0000
     1.0000   0.4765   0.3398   0.1493   0.0000   0.0000   0.0000

          k = 0.3500 0.4500 0.4500 (  7270 PWs)   bands (ev):

   -30.3617 -19.9833 -12.3773 -12.3760 -12.2773  -8.8234  -8.6567  -8.6506
    -5.2696  -5.2679  -5.2290   3.6295   3.8722   4.0710   4.0758   4.2867
     4.4248   5.5618   5.5706   5.6898  11.5541  11.7162  11.7218

     occupation numbers 
     1.0000   1.0000   1.0000   1.0000   1.0000   1.0000   1.0000   1.0000
     1.0000   1.0000   1.0000   1.0000   1.0000   1.0000   1.0000   1.0000
     1.0000   0.2586   0.2414   0.0784   0.0000   0.0000   0.0000

          k = 0.4500 0.4500 0.4500 (  7271 PWs)   bands (ev):

   -30.3610 -19.9806 -12.3747 -12.3725 -12.3725  -8.6548  -8.6423  -8.6423
    -5.2973  -5.2973  -5.2828   3.5549   3.9908   4.0339   4.0339   4.2888
     4.2888   5.6805   5.6805   5.7046  11.4788  11.4984  11.4984

     occupation numbers 
     1.0000   1.0000   1.0000   1.0000   1.0000   1.0000   1.0000   1.0000
     1.0000   1.0000   1.0000   1.0000   1.0000   1.0000   1.0000   1.0000
     1.0000   0.0867   0.0867   0.0665   0.0000   0.0000   0.0000

     the Fermi energy is     5.4994 ev

!    total energy              =    -628.29857640 Ry
     estimated scf accuracy    <       0.00000002 Ry
     smearing contrib. (-TS)   =      -0.00194527 Ry
     internal energy E=F+TS    =    -628.29663113 Ry

     The total energy is F=E-TS. E is the sum of the following terms:
     one-electron contribution =     -64.50361637 Ry
     hartree contribution      =      52.33249160 Ry
     xc contribution           =     -53.70858651 Ry
     ewald contribution        =    -166.45952522 Ry
     one-center paw contrib.   =    -395.95739465 Ry
      -> PAW hartree energy AE =      28.30588505 Ry
      -> PAW hartree energy PS =     -28.18891339 Ry
      -> PAW xc energy AE      =    -387.72754859 Ry
      -> PAW xc energy PS      =      19.01468374 Ry
      -> total E_H with PAW    =      52.44946326 Ry
      -> total E_XC with PAW   =    -422.42145136 Ry

     convergence has been achieved in  11 iterations

     Forces acting on atoms (cartesian axes, Ry/au):

     atom    1 type  1   force =     0.00000000    0.00000000    0.00000000
     atom    2 type  2   force =     0.00000000    0.00000000    0.00000000
     atom    3 type  3   force =     0.00000000    0.00000000    0.00000000
     atom    4 type  3   force =     0.00000000    0.00000000    0.00000000
     atom    5 type  3   force =     0.00000000    0.00000000    0.00000000
     The non-local contrib.  to forces
     atom    1 type  1   force =     0.00000000    0.00000000    0.00000000
     atom    2 type  2   force =     0.00000000    0.00000000    0.00000000
     atom    3 type  3   force =     0.00000000    0.00000000    0.00000000
     atom    4 type  3   force =     0.00000000    0.00000000    0.00000000
     atom    5 type  3   force =     0.00000000    0.00000000    0.00000000
     The ionic contribution  to forces
     atom    1 type  1   force =    -0.00000000   -0.00000000   -0.00000000
     atom    2 type  2   force =     0.00000000    0.00000000    0.00000000
     atom    3 type  3   force =     0.00000000    0.00000000   -0.00000000
     atom    4 type  3   force =     0.00000000   -0.00000000    0.00000000
     atom    5 type  3   force =    -0.00000000    0.00000000    0.00000000
     The local contribution  to forces
     atom    1 type  1   force =    -0.00000000   -0.00000000   -0.00000000
     atom    2 type  2   force =     0.00000000    0.00000000    0.00000000
     atom    3 type  3   force =     0.00000000    0.00000000   -0.00000000
     atom    4 type  3   force =     0.00000000   -0.00000000    0.00000000
     atom    5 type  3   force =    -0.00000000    0.00000000    0.00000000
     The core correction contribution to forces
     atom    1 type  1   force =     0.00000000    0.00000000    0.00000000
     atom    2 type  2   force =    -0.00000000   -0.00000000   -0.00000000
     atom    3 type  3   force =    -0.00000000   -0.00000000   -0.00000000
     atom    4 type  3   force =    -0.00000000   -0.00000000   -0.00000000
     atom    5 type  3   force =    -0.00000000   -0.00000000    0.00000000
     The Hubbard contrib.    to forces
     atom    1 type  1   force =     0.00000000    0.00000000    0.00000000
     atom    2 type  2   force =     0.00000000    0.00000000    0.00000000
     atom    3 type  3   force =     0.00000000    0.00000000    0.00000000
     atom    4 type  3   force =     0.00000000    0.00000000    0.00000000
     atom    5 type  3   force =     0.00000000    0.00000000    0.00000000
     The SCF correction term to forces
     atom    1 type  1   force =    -0.00000000    0.00000000   -0.00000000
     atom    2 type  2   force =    -0.00000000    0.00000000   -0.00000000
     atom    3 type  3   force =     0.00000000    0.00000000    0.00000000
     atom    4 type  3   force =    -0.00000000   -0.00000000   -0.00000000
     atom    5 type  3   force =     0.00000000    0.00000000   -0.00000000

     Total force =     0.000000     Total SCF correction =     0.000000


     Computing stress (Cartesian axis) and pressure

          total   stress  (Ry/bohr**3)                   (kbar)     P=      -46.16
  -0.00031376   0.00000000   0.00000000          -46.16        0.00        0.00
   0.00000000  -0.00031376   0.00000000            0.00      -46.16        0.00
   0.00000000   0.00000000  -0.00031376            0.00        0.00      -46.16

     kinetic stress (kbar)  14350.66      0.00      0.00
                                0.00  14350.66      0.00
                                0.00      0.00  14350.66

     local   stress (kbar)  -6185.43     -0.00     -0.00
                               -0.00  -6185.43      0.00
                               -0.00      0.00  -6185.43

     nonloc. stress (kbar)   4550.11      0.00      0.00
                                0.00   4550.11      0.00
                                0.00      0.00   4550.11

     hartree stress (kbar)   4273.51      0.00      0.00
                                0.00   4273.51     -0.00
                                0.00     -0.00   4273.51

     exc-cor stress (kbar)    451.36     -0.00     -0.00
                               -0.00    451.36      0.00
                               -0.00      0.00    451.36

     corecor stress (kbar)  -3893.17     -0.00     -0.00
                               -0.00  -3893.17     -0.00
                               -0.00     -0.00  -3893.17

     ewald   stress (kbar) -13593.20     -0.00     -0.00
                               -0.00 -13593.20     -0.00
                               -0.00     -0.00 -13593.20

     hubbard stress (kbar)      0.00      0.00      0.00
                                0.00      0.00      0.00
                                0.00      0.00      0.00

     DFT-D   stress (kbar)      0.00      0.00      0.00
                                0.00      0.00      0.00
                                0.00      0.00      0.00

     XDM     stress (kbar)      0.00      0.00      0.00
                                0.00      0.00      0.00
                                0.00      0.00      0.00

     dft-nl  stress (kbar)      0.00      0.00      0.00
                                0.00      0.00      0.00
                                0.00      0.00      0.00

     TS-vdW  stress (kbar)      0.00      0.00      0.00
                                0.00      0.00      0.00
                                0.00      0.00      0.00

     MDB     stress (kbar)      0.00      0.00      0.00
                                0.00      0.00      0.00
                                0.00      0.00      0.00

     3D-RISM stress (kbar)      0.00      0.00      0.00
                                0.00      0.00      0.00
                                0.00      0.00      0.00


     Writing all to output data dir ./out/BCO.save/ :
     XML data file, charge density, pseudopotentials, collected wavefunctions

     init_run     :      1.50s CPU      1.72s WALL (       1 calls)
     electrons    :     27.37s CPU     29.63s WALL (       1 calls)
     forces       :      0.47s CPU      0.49s WALL (       1 calls)
     stress       :      2.01s CPU      2.12s WALL (       1 calls)

     Called by init_run:
     wfcinit      :      0.48s CPU      0.48s WALL (       1 calls)
     wfcinit:atom :      0.01s CPU      0.01s WALL (      35 calls)
     wfcinit:wfcr :      0.45s CPU      0.45s WALL (      35 calls)
     potinit      :      0.27s CPU      0.27s WALL (       1 calls)
     hinit0       :      0.39s CPU      0.54s WALL (       1 calls)

     Called by electrons:
     c_bands      :     19.78s CPU     20.91s WALL (      11 calls)
     sum_band     :      4.90s CPU      5.71s WALL (      11 calls)
     v_of_rho     :      0.32s CPU      0.33s WALL (      12 calls)
     v_h          :      0.04s CPU      0.04s WALL (      12 calls)
     v_xc         :      0.31s CPU      0.32s WALL (      14 calls)
     newd         :      1.64s CPU      1.97s WALL (      12 calls)
     PAW_pot      :      0.67s CPU      0.68s WALL (      12 calls)
     mix_rho      :      0.20s CPU      0.22s WALL (      11 calls)

     Called by c_bands:
     init_us_2    :      0.20s CPU      0.21s WALL (     875 calls)
     init_us_2:cp :      0.20s CPU      0.21s WALL (     875 calls)
     cegterg      :     19.22s CPU     20.33s WALL (     385 calls)

     Called by sum_band:
     sum_band:wei :      0.01s CPU      0.01s WALL (      11 calls)
     sum_band:loo :      3.46s CPU      3.80s WALL (      11 calls)
     sum_band:buf :      0.03s CPU      0.04s WALL (     385 calls)
     sum_band:ini :      0.08s CPU      0.09s WALL (     385 calls)
     sum_band:cal :      0.63s CPU      0.69s WALL (     385 calls)
     sum_band:bec :      0.01s CPU      0.02s WALL (     385 calls)
     addusdens    :      1.29s CPU      1.73s WALL (      11 calls)
                                        0.00s GPU  (      11 calls)
     addusd:skk   :      0.01s CPU      0.01s WALL (      33 calls)
                                        0.00s GPU  (      33 calls)

     Called by *egterg:
     cdiaghg      :      1.28s CPU      1.32s WALL (    1954 calls)
     cegterg:over :      1.86s CPU      1.97s WALL (    1569 calls)
     cegterg:upda :      0.56s CPU      0.63s WALL (    1569 calls)
     cegterg:last :      1.27s CPU      1.28s WALL (     852 calls)
     h_psi        :     12.16s CPU     12.84s WALL (    1989 calls)
     s_psi        :      1.09s CPU      1.14s WALL (    1989 calls)
     g_psi        :      0.03s CPU      0.04s WALL (    1569 calls)

     Called by h_psi:
     h_psi:calbec :      1.98s CPU      2.09s WALL (    1989 calls)
     vloc_psi     :      9.03s CPU      9.56s WALL (    1989 calls)
     add_vuspsi   :      1.10s CPU      1.14s WALL (    1989 calls)

     General routines
     calbec       :      2.86s CPU      3.03s WALL (    2549 calls)
     fft          :      0.33s CPU      0.42s WALL (     179 calls)
     ffts         :      0.12s CPU      0.13s WALL (      23 calls)
     fftw         :     10.36s CPU     11.10s WALL (   57857 calls)
     interpolate  :      0.13s CPU      0.14s WALL (      12 calls)

     Parallel routines

     PAW routines
     PAW_pot      :      0.67s CPU      0.68s WALL (      12 calls)
     PAW_symme    :      0.03s CPU      0.03s WALL (      23 calls)

     PWSCF        :     31.99s CPU     34.74s WALL


   This run was terminated on:  18:26:44   7Apr2025            

=------------------------------------------------------------------------------=
   JOB DONE.
=------------------------------------------------------------------------------=
