
     Program PWSCF v.7.3 starts on  8Apr2025 at 19:13:50 

     This program is part of the open-source Quantum ESPRESSO suite
     for quantum simulation of materials; please cite
         "P. Giannozzi et al., J. Phys.:Condens. Matter 21 395502 (2009);
         "P. Giannozzi et al., J. Phys.:Condens. Matter 29 465901 (2017);
         "P. Giannozzi et al., J. Chem. Phys. 152 154105 (2020);
          URL http://www.quantum-espresso.org", 
     in publications or presentations arising from this work. More details at
     http://www.quantum-espresso.org/quote

     Parallel version (MPI), running on    20 processors

     MPI processes distributed on     1 nodes
     27497 MiB available memory on the printing compute node when the environment starts

     Waiting for input...
     Reading input from standard input

     Current dimensions of program PWSCF are:
     Max number of different atomic species (ntypx) = 10
     Max number of k-points (npk) = 120000
     Max angular momentum in pseudopotentials (lmaxx) =  4
     file Ba.pbesol-spn-kjpaw_psl.1.0.0.UPF: wavefunction(s)  5S 6S renormalized
     file O.pbesol-n-kjpaw_psl.0.1.UPF: wavefunction(s)  2P renormalized
     Message from routine setup:
     using ibrav=0 with symmetry is DISCOURAGED, use correct ibrav instead

     K-points division:     npool     =       2
     R & G space division:  proc/nbgrp/npool/nimage =      10
     Subspace diagonalization in iterative solution of the eigenvalue problem:
     a serial algorithm will be used


     Parallelization info
     --------------------
     sticks:   dense  smooth     PW     G-vecs:    dense   smooth      PW
     Min         224      88     27                 8096     2036     339
     Max         225      90     28                 8101     2039     342
     Sum        2249     889    277                80989    20377    3407

     Using Slab Decomposition



     bravais-lattice index     =            0
     lattice parameter (alat)  =       8.4365  a.u.
     unit-cell volume          =     600.4730 (a.u.)^3
     number of atoms/cell      =            5
     number of atomic types    =            3
     number of electrons       =        38.00
     number of Kohn-Sham states=           23
     kinetic-energy cutoff     =      40.0000  Ry
     charge density cutoff     =     400.0000  Ry
     scf convergence threshold =      1.0E-07
     mixing beta               =       0.4000
     number of iterations used =            8  plain     mixing
     Exchange-correlation= SLA  PW   PSX  PSC
                           (   1   4  10   8   0   0   0)

     celldm(1)=   8.436542  celldm(2)=   0.000000  celldm(3)=   0.000000
     celldm(4)=   0.000000  celldm(5)=   0.000000  celldm(6)=   0.000000

     crystal axes: (cart. coord. in units of alat)
               a(1) = (   1.000000   0.000000   0.000000 )  
               a(2) = (   0.000000   1.000000   0.000000 )  
               a(3) = (   0.000000   0.000000   1.000000 )  

     reciprocal axes: (cart. coord. in units 2 pi/alat)
               b(1) = (  1.000000  0.000000  0.000000 )  
               b(2) = (  0.000000  1.000000  0.000000 )  
               b(3) = (  0.000000  0.000000  1.000000 )  


     PseudoPot. # 1 for Ba read from file:
     ./pseudo/Ba.pbesol-spn-kjpaw_psl.1.0.0.UPF
     MD5 check sum: f28c4a63d325c1a0d00fd3a4f19b8d73
     Pseudo is Projector augmented-wave + core cor, Zval = 10.0
     Generated using "atomic" code by A. Dal Corso  v.6.0 svn rev. 13079
     Shape of augmentation charge: PSQ
     Using radial grid of 1251 points,  7 beta functions with: 
                l(1) =   0
                l(2) =   0
                l(3) =   0
                l(4) =   1
                l(5) =   1
                l(6) =   2
                l(7) =   2
     Q(r) pseudized with 0 coefficients 


     PseudoPot. # 2 for Ca read from file:
     ./pseudo/ca_pbesol_v1.uspp.F.UPF
     MD5 check sum: 0533207b58cddeaa036efa5b63902087
     Pseudo is Ultrasoft + core correction, Zval = 10.0
     Generated by new atomic code, or converted to UPF format
     Using radial grid of  845 points,  6 beta functions with: 
                l(1) =   0
                l(2) =   0
                l(3) =   1
                l(4) =   1
                l(5) =   2
                l(6) =   2
     Q(r) pseudized with  8 coefficients,  rinner =    1.500   1.500   1.500
                                                       1.500   1.500

     PseudoPot. # 3 for O  read from file:
     ./pseudo/O.pbesol-n-kjpaw_psl.0.1.UPF
     MD5 check sum: 81d73d1479e654e5638b0319f0d6c2c7
     Pseudo is Projector augmented-wave + core cor, Zval =  6.0
     Generated using "atomic" code by A. Dal Corso  v.6.0 svn rev. 13079
     Shape of augmentation charge: BESSEL
     Using radial grid of 1095 points,  4 beta functions with: 
                l(1) =   0
                l(2) =   0
                l(3) =   1
                l(4) =   1
     Q(r) pseudized with 0 coefficients 


     atomic species   valence    mass     pseudopotential
     Ba               10.00   137.32700     Ba( 1.00)
     Ca               10.00    40.07800     Ca( 1.00)
     O                 6.00    15.99940     O ( 1.00)

     48 Sym. Ops., with inversion, found


                                    s                        frac. trans.

      isym =  1     identity                                     

 cryst.   s( 1) = (     1          0          0      )
                  (     0          1          0      )
                  (     0          0          1      )

 cart.    s( 1) = (  1.0000000  0.0000000  0.0000000 )
                  (  0.0000000  1.0000000  0.0000000 )
                  (  0.0000000  0.0000000  1.0000000 )


      isym =  2     180 deg rotation - cart. axis [0,0,1]        

 cryst.   s( 2) = (    -1          0          0      )
                  (     0         -1          0      )
                  (     0          0          1      )

 cart.    s( 2) = ( -1.0000000  0.0000000  0.0000000 )
                  (  0.0000000 -1.0000000  0.0000000 )
                  (  0.0000000  0.0000000  1.0000000 )


      isym =  3     180 deg rotation - cart. axis [0,1,0]        

 cryst.   s( 3) = (    -1          0          0      )
                  (     0          1          0      )
                  (     0          0         -1      )

 cart.    s( 3) = ( -1.0000000  0.0000000  0.0000000 )
                  (  0.0000000  1.0000000  0.0000000 )
                  (  0.0000000  0.0000000 -1.0000000 )


      isym =  4     180 deg rotation - cart. axis [1,0,0]        

 cryst.   s( 4) = (     1          0          0      )
                  (     0         -1          0      )
                  (     0          0         -1      )

 cart.    s( 4) = (  1.0000000  0.0000000  0.0000000 )
                  (  0.0000000 -1.0000000  0.0000000 )
                  (  0.0000000  0.0000000 -1.0000000 )


      isym =  5     180 deg rotation - cart. axis [1,1,0]        

 cryst.   s( 5) = (     0          1          0      )
                  (     1          0          0      )
                  (     0          0         -1      )

 cart.    s( 5) = (  0.0000000  1.0000000  0.0000000 )
                  (  1.0000000  0.0000000  0.0000000 )
                  (  0.0000000  0.0000000 -1.0000000 )


      isym =  6     180 deg rotation - cart. axis [1,-1,0]       

 cryst.   s( 6) = (     0         -1          0      )
                  (    -1          0          0      )
                  (     0          0         -1      )

 cart.    s( 6) = (  0.0000000 -1.0000000  0.0000000 )
                  ( -1.0000000  0.0000000  0.0000000 )
                  (  0.0000000  0.0000000 -1.0000000 )


      isym =  7      90 deg rotation - cart. axis [0,0,-1]       

 cryst.   s( 7) = (     0         -1          0      )
                  (     1          0          0      )
                  (     0          0          1      )

 cart.    s( 7) = (  0.0000000  1.0000000  0.0000000 )
                  ( -1.0000000  0.0000000  0.0000000 )
                  (  0.0000000  0.0000000  1.0000000 )


      isym =  8      90 deg rotation - cart. axis [0,0,1]        

 cryst.   s( 8) = (     0          1          0      )
                  (    -1          0          0      )
                  (     0          0          1      )

 cart.    s( 8) = (  0.0000000 -1.0000000  0.0000000 )
                  (  1.0000000  0.0000000  0.0000000 )
                  (  0.0000000  0.0000000  1.0000000 )


      isym =  9     180 deg rotation - cart. axis [1,0,1]        

 cryst.   s( 9) = (     0          0          1      )
                  (     0         -1          0      )
                  (     1          0          0      )

 cart.    s( 9) = (  0.0000000  0.0000000  1.0000000 )
                  (  0.0000000 -1.0000000  0.0000000 )
                  (  1.0000000  0.0000000  0.0000000 )


      isym = 10     180 deg rotation - cart. axis [-1,0,1]       

 cryst.   s(10) = (     0          0         -1      )
                  (     0         -1          0      )
                  (    -1          0          0      )

 cart.    s(10) = (  0.0000000  0.0000000 -1.0000000 )
                  (  0.0000000 -1.0000000  0.0000000 )
                  ( -1.0000000  0.0000000  0.0000000 )


      isym = 11      90 deg rotation - cart. axis [0,1,0]        

 cryst.   s(11) = (     0          0         -1      )
                  (     0          1          0      )
                  (     1          0          0      )

 cart.    s(11) = (  0.0000000  0.0000000  1.0000000 )
                  (  0.0000000  1.0000000  0.0000000 )
                  ( -1.0000000  0.0000000  0.0000000 )


      isym = 12      90 deg rotation - cart. axis [0,-1,0]       

 cryst.   s(12) = (     0          0          1      )
                  (     0          1          0      )
                  (    -1          0          0      )

 cart.    s(12) = (  0.0000000  0.0000000 -1.0000000 )
                  (  0.0000000  1.0000000  0.0000000 )
                  (  1.0000000  0.0000000  0.0000000 )


      isym = 13     180 deg rotation - cart. axis [0,1,1]        

 cryst.   s(13) = (    -1          0          0      )
                  (     0          0          1      )
                  (     0          1          0      )

 cart.    s(13) = ( -1.0000000  0.0000000  0.0000000 )
                  (  0.0000000  0.0000000  1.0000000 )
                  (  0.0000000  1.0000000  0.0000000 )


      isym = 14     180 deg rotation - cart. axis [0,1,-1]       

 cryst.   s(14) = (    -1          0          0      )
                  (     0          0         -1      )
                  (     0         -1          0      )

 cart.    s(14) = ( -1.0000000  0.0000000  0.0000000 )
                  (  0.0000000  0.0000000 -1.0000000 )
                  (  0.0000000 -1.0000000  0.0000000 )


      isym = 15      90 deg rotation - cart. axis [-1,0,0]       

 cryst.   s(15) = (     1          0          0      )
                  (     0          0         -1      )
                  (     0          1          0      )

 cart.    s(15) = (  1.0000000  0.0000000  0.0000000 )
                  (  0.0000000  0.0000000  1.0000000 )
                  (  0.0000000 -1.0000000  0.0000000 )


      isym = 16      90 deg rotation - cart. axis [1,0,0]        

 cryst.   s(16) = (     1          0          0      )
                  (     0          0          1      )
                  (     0         -1          0      )

 cart.    s(16) = (  1.0000000  0.0000000  0.0000000 )
                  (  0.0000000  0.0000000 -1.0000000 )
                  (  0.0000000  1.0000000  0.0000000 )


      isym = 17     120 deg rotation - cart. axis [-1,-1,-1]     

 cryst.   s(17) = (     0          0          1      )
                  (     1          0          0      )
                  (     0          1          0      )

 cart.    s(17) = (  0.0000000  1.0000000  0.0000000 )
                  (  0.0000000  0.0000000  1.0000000 )
                  (  1.0000000  0.0000000  0.0000000 )


      isym = 18     120 deg rotation - cart. axis [-1,1,1]       

 cryst.   s(18) = (     0          0         -1      )
                  (    -1          0          0      )
                  (     0          1          0      )

 cart.    s(18) = (  0.0000000 -1.0000000  0.0000000 )
                  (  0.0000000  0.0000000  1.0000000 )
                  ( -1.0000000  0.0000000  0.0000000 )


      isym = 19     120 deg rotation - cart. axis [1,1,-1]       

 cryst.   s(19) = (     0          0         -1      )
                  (     1          0          0      )
                  (     0         -1          0      )

 cart.    s(19) = (  0.0000000  1.0000000  0.0000000 )
                  (  0.0000000  0.0000000 -1.0000000 )
                  ( -1.0000000  0.0000000  0.0000000 )


      isym = 20     120 deg rotation - cart. axis [1,-1,1]       

 cryst.   s(20) = (     0          0          1      )
                  (    -1          0          0      )
                  (     0         -1          0      )

 cart.    s(20) = (  0.0000000 -1.0000000  0.0000000 )
                  (  0.0000000  0.0000000 -1.0000000 )
                  (  1.0000000  0.0000000  0.0000000 )


      isym = 21     120 deg rotation - cart. axis [1,1,1]        

 cryst.   s(21) = (     0          1          0      )
                  (     0          0          1      )
                  (     1          0          0      )

 cart.    s(21) = (  0.0000000  0.0000000  1.0000000 )
                  (  1.0000000  0.0000000  0.0000000 )
                  (  0.0000000  1.0000000  0.0000000 )


      isym = 22     120 deg rotation - cart. axis [-1,1,-1]      

 cryst.   s(22) = (     0         -1          0      )
                  (     0          0         -1      )
                  (     1          0          0      )

 cart.    s(22) = (  0.0000000  0.0000000  1.0000000 )
                  ( -1.0000000  0.0000000  0.0000000 )
                  (  0.0000000 -1.0000000  0.0000000 )


      isym = 23     120 deg rotation - cart. axis [1,-1,-1]      

 cryst.   s(23) = (     0         -1          0      )
                  (     0          0          1      )
                  (    -1          0          0      )

 cart.    s(23) = (  0.0000000  0.0000000 -1.0000000 )
                  ( -1.0000000  0.0000000  0.0000000 )
                  (  0.0000000  1.0000000  0.0000000 )


      isym = 24     120 deg rotation - cart. axis [-1,-1,1]      

 cryst.   s(24) = (     0          1          0      )
                  (     0          0         -1      )
                  (    -1          0          0      )

 cart.    s(24) = (  0.0000000  0.0000000 -1.0000000 )
                  (  1.0000000  0.0000000  0.0000000 )
                  (  0.0000000 -1.0000000  0.0000000 )


      isym = 25     inversion                                    

 cryst.   s(25) = (    -1          0          0      )
                  (     0         -1          0      )
                  (     0          0         -1      )

 cart.    s(25) = ( -1.0000000  0.0000000  0.0000000 )
                  (  0.0000000 -1.0000000  0.0000000 )
                  (  0.0000000  0.0000000 -1.0000000 )


      isym = 26     inv. 180 deg rotation - cart. axis [0,0,1]   

 cryst.   s(26) = (     1          0          0      )
                  (     0          1          0      )
                  (     0          0         -1      )

 cart.    s(26) = (  1.0000000  0.0000000  0.0000000 )
                  (  0.0000000  1.0000000  0.0000000 )
                  (  0.0000000  0.0000000 -1.0000000 )


      isym = 27     inv. 180 deg rotation - cart. axis [0,1,0]   

 cryst.   s(27) = (     1          0          0      )
                  (     0         -1          0      )
                  (     0          0          1      )

 cart.    s(27) = (  1.0000000  0.0000000  0.0000000 )
                  (  0.0000000 -1.0000000  0.0000000 )
                  (  0.0000000  0.0000000  1.0000000 )


      isym = 28     inv. 180 deg rotation - cart. axis [1,0,0]   

 cryst.   s(28) = (    -1          0          0      )
                  (     0          1          0      )
                  (     0          0          1      )

 cart.    s(28) = ( -1.0000000  0.0000000  0.0000000 )
                  (  0.0000000  1.0000000  0.0000000 )
                  (  0.0000000  0.0000000  1.0000000 )


      isym = 29     inv. 180 deg rotation - cart. axis [1,1,0]   

 cryst.   s(29) = (     0         -1          0      )
                  (    -1          0          0      )
                  (     0          0          1      )

 cart.    s(29) = (  0.0000000 -1.0000000  0.0000000 )
                  ( -1.0000000  0.0000000  0.0000000 )
                  (  0.0000000  0.0000000  1.0000000 )


      isym = 30     inv. 180 deg rotation - cart. axis [1,-1,0]  

 cryst.   s(30) = (     0          1          0      )
                  (     1          0          0      )
                  (     0          0          1      )

 cart.    s(30) = (  0.0000000  1.0000000  0.0000000 )
                  (  1.0000000  0.0000000  0.0000000 )
                  (  0.0000000  0.0000000  1.0000000 )


      isym = 31     inv.  90 deg rotation - cart. axis [0,0,-1]  

 cryst.   s(31) = (     0          1          0      )
                  (    -1          0          0      )
                  (     0          0         -1      )

 cart.    s(31) = (  0.0000000 -1.0000000  0.0000000 )
                  (  1.0000000  0.0000000  0.0000000 )
                  (  0.0000000  0.0000000 -1.0000000 )


      isym = 32     inv.  90 deg rotation - cart. axis [0,0,1]   

 cryst.   s(32) = (     0         -1          0      )
                  (     1          0          0      )
                  (     0          0         -1      )

 cart.    s(32) = (  0.0000000  1.0000000  0.0000000 )
                  ( -1.0000000  0.0000000  0.0000000 )
                  (  0.0000000  0.0000000 -1.0000000 )


      isym = 33     inv. 180 deg rotation - cart. axis [1,0,1]   

 cryst.   s(33) = (     0          0         -1      )
                  (     0          1          0      )
                  (    -1          0          0      )

 cart.    s(33) = (  0.0000000  0.0000000 -1.0000000 )
                  (  0.0000000  1.0000000  0.0000000 )
                  ( -1.0000000  0.0000000  0.0000000 )


      isym = 34     inv. 180 deg rotation - cart. axis [-1,0,1]  

 cryst.   s(34) = (     0          0          1      )
                  (     0          1          0      )
                  (     1          0          0      )

 cart.    s(34) = (  0.0000000  0.0000000  1.0000000 )
                  (  0.0000000  1.0000000  0.0000000 )
                  (  1.0000000  0.0000000  0.0000000 )


      isym = 35     inv.  90 deg rotation - cart. axis [0,1,0]   

 cryst.   s(35) = (     0          0          1      )
                  (     0         -1          0      )
                  (    -1          0          0      )

 cart.    s(35) = (  0.0000000  0.0000000 -1.0000000 )
                  (  0.0000000 -1.0000000  0.0000000 )
                  (  1.0000000  0.0000000  0.0000000 )


      isym = 36     inv.  90 deg rotation - cart. axis [0,-1,0]  

 cryst.   s(36) = (     0          0         -1      )
                  (     0         -1          0      )
                  (     1          0          0      )

 cart.    s(36) = (  0.0000000  0.0000000  1.0000000 )
                  (  0.0000000 -1.0000000  0.0000000 )
                  ( -1.0000000  0.0000000  0.0000000 )


      isym = 37     inv. 180 deg rotation - cart. axis [0,1,1]   

 cryst.   s(37) = (     1          0          0      )
                  (     0          0         -1      )
                  (     0         -1          0      )

 cart.    s(37) = (  1.0000000  0.0000000  0.0000000 )
                  (  0.0000000  0.0000000 -1.0000000 )
                  (  0.0000000 -1.0000000  0.0000000 )


      isym = 38     inv. 180 deg rotation - cart. axis [0,1,-1]  

 cryst.   s(38) = (     1          0          0      )
                  (     0          0          1      )
                  (     0          1          0      )

 cart.    s(38) = (  1.0000000  0.0000000  0.0000000 )
                  (  0.0000000  0.0000000  1.0000000 )
                  (  0.0000000  1.0000000  0.0000000 )


      isym = 39     inv.  90 deg rotation - cart. axis [-1,0,0]  

 cryst.   s(39) = (    -1          0          0      )
                  (     0          0          1      )
                  (     0         -1          0      )

 cart.    s(39) = ( -1.0000000  0.0000000  0.0000000 )
                  (  0.0000000  0.0000000 -1.0000000 )
                  (  0.0000000  1.0000000  0.0000000 )


      isym = 40     inv.  90 deg rotation - cart. axis [1,0,0]   

 cryst.   s(40) = (    -1          0          0      )
                  (     0          0         -1      )
                  (     0          1          0      )

 cart.    s(40) = ( -1.0000000  0.0000000  0.0000000 )
                  (  0.0000000  0.0000000  1.0000000 )
                  (  0.0000000 -1.0000000  0.0000000 )


      isym = 41     inv. 120 deg rotation - cart. axis [-1,-1,-1]

 cryst.   s(41) = (     0          0         -1      )
                  (    -1          0          0      )
                  (     0         -1          0      )

 cart.    s(41) = (  0.0000000 -1.0000000  0.0000000 )
                  (  0.0000000  0.0000000 -1.0000000 )
                  ( -1.0000000  0.0000000  0.0000000 )


      isym = 42     inv. 120 deg rotation - cart. axis [-1,1,1]  

 cryst.   s(42) = (     0          0          1      )
                  (     1          0          0      )
                  (     0         -1          0      )

 cart.    s(42) = (  0.0000000  1.0000000  0.0000000 )
                  (  0.0000000  0.0000000 -1.0000000 )
                  (  1.0000000  0.0000000  0.0000000 )


      isym = 43     inv. 120 deg rotation - cart. axis [1,1,-1]  

 cryst.   s(43) = (     0          0          1      )
                  (    -1          0          0      )
                  (     0          1          0      )

 cart.    s(43) = (  0.0000000 -1.0000000  0.0000000 )
                  (  0.0000000  0.0000000  1.0000000 )
                  (  1.0000000  0.0000000  0.0000000 )


      isym = 44     inv. 120 deg rotation - cart. axis [1,-1,1]  

 cryst.   s(44) = (     0          0         -1      )
                  (     1          0          0      )
                  (     0          1          0      )

 cart.    s(44) = (  0.0000000  1.0000000  0.0000000 )
                  (  0.0000000  0.0000000  1.0000000 )
                  ( -1.0000000  0.0000000  0.0000000 )


      isym = 45     inv. 120 deg rotation - cart. axis [1,1,1]   

 cryst.   s(45) = (     0         -1          0      )
                  (     0          0         -1      )
                  (    -1          0          0      )

 cart.    s(45) = (  0.0000000  0.0000000 -1.0000000 )
                  ( -1.0000000  0.0000000  0.0000000 )
                  (  0.0000000 -1.0000000  0.0000000 )


      isym = 46     inv. 120 deg rotation - cart. axis [-1,1,-1] 

 cryst.   s(46) = (     0          1          0      )
                  (     0          0          1      )
                  (    -1          0          0      )

 cart.    s(46) = (  0.0000000  0.0000000 -1.0000000 )
                  (  1.0000000  0.0000000  0.0000000 )
                  (  0.0000000  1.0000000  0.0000000 )


      isym = 47     inv. 120 deg rotation - cart. axis [1,-1,-1] 

 cryst.   s(47) = (     0          1          0      )
                  (     0          0         -1      )
                  (     1          0          0      )

 cart.    s(47) = (  0.0000000  0.0000000  1.0000000 )
                  (  1.0000000  0.0000000  0.0000000 )
                  (  0.0000000 -1.0000000  0.0000000 )


      isym = 48     inv. 120 deg rotation - cart. axis [-1,-1,1] 

 cryst.   s(48) = (     0         -1          0      )
                  (     0          0          1      )
                  (     1          0          0      )

 cart.    s(48) = (  0.0000000  0.0000000  1.0000000 )
                  ( -1.0000000  0.0000000  0.0000000 )
                  (  0.0000000  1.0000000  0.0000000 )


   Cartesian axes

     site n.     atom                  positions (alat units)
         1        Ba     tau(   1) = (   0.0000000   0.0000000   0.0000000  )
         2        Ca     tau(   2) = (   0.5000000   0.5000000   0.5000000  )
         3        O      tau(   3) = (   0.5000000   0.5000000   0.0000000  )
         4        O      tau(   4) = (   0.5000000   0.0000000   0.5000000  )
         5        O      tau(   5) = (   0.0000000   0.5000000   0.5000000  )

   Crystallographic axes

     site n.     atom                  positions (cryst. coord.)
         1        Ba     tau(   1) = (  0.0000000  0.0000000  0.0000000  )
         2        Ca     tau(   2) = (  0.5000000  0.5000000  0.5000000  )
         3        O      tau(   3) = (  0.5000000  0.5000000  0.0000000  )
         4        O      tau(   4) = (  0.5000000  0.0000000  0.5000000  )
         5        O      tau(   5) = (  0.0000000  0.5000000  0.5000000  )

     number of k points=   680  Marzari-Vanderbilt smearing, width (Ry)=  0.0200
                       cart. coord. in units 2pi/alat
        k(    1) = (   0.0166667   0.0166667   0.0166667), wk =   0.0005926
        k(    2) = (   0.0166667   0.0166667   0.0500000), wk =   0.0017778
        k(    3) = (   0.0166667   0.0166667   0.0833333), wk =   0.0017778
        k(    4) = (   0.0166667   0.0166667   0.1166667), wk =   0.0017778
        k(    5) = (   0.0166667   0.0166667   0.1500000), wk =   0.0017778
        k(    6) = (   0.0166667   0.0166667   0.1833333), wk =   0.0017778
        k(    7) = (   0.0166667   0.0166667   0.2166667), wk =   0.0017778
        k(    8) = (   0.0166667   0.0166667   0.2500000), wk =   0.0017778
        k(    9) = (   0.0166667   0.0166667   0.2833333), wk =   0.0017778
        k(   10) = (   0.0166667   0.0166667   0.3166667), wk =   0.0017778
        k(   11) = (   0.0166667   0.0166667   0.3500000), wk =   0.0017778
        k(   12) = (   0.0166667   0.0166667   0.3833333), wk =   0.0017778
        k(   13) = (   0.0166667   0.0166667   0.4166667), wk =   0.0017778
        k(   14) = (   0.0166667   0.0166667   0.4500000), wk =   0.0017778
        k(   15) = (   0.0166667   0.0166667   0.4833333), wk =   0.0017778
        k(   16) = (   0.0166667   0.0500000   0.0500000), wk =   0.0017778
        k(   17) = (   0.0166667   0.0500000   0.0833333), wk =   0.0035556
        k(   18) = (   0.0166667   0.0500000   0.1166667), wk =   0.0035556
        k(   19) = (   0.0166667   0.0500000   0.1500000), wk =   0.0035556
        k(   20) = (   0.0166667   0.0500000   0.1833333), wk =   0.0035556
        k(   21) = (   0.0166667   0.0500000   0.2166667), wk =   0.0035556
        k(   22) = (   0.0166667   0.0500000   0.2500000), wk =   0.0035556
        k(   23) = (   0.0166667   0.0500000   0.2833333), wk =   0.0035556
        k(   24) = (   0.0166667   0.0500000   0.3166667), wk =   0.0035556
        k(   25) = (   0.0166667   0.0500000   0.3500000), wk =   0.0035556
        k(   26) = (   0.0166667   0.0500000   0.3833333), wk =   0.0035556
        k(   27) = (   0.0166667   0.0500000   0.4166667), wk =   0.0035556
        k(   28) = (   0.0166667   0.0500000   0.4500000), wk =   0.0035556
        k(   29) = (   0.0166667   0.0500000   0.4833333), wk =   0.0035556
        k(   30) = (   0.0166667   0.0833333   0.0833333), wk =   0.0017778
        k(   31) = (   0.0166667   0.0833333   0.1166667), wk =   0.0035556
        k(   32) = (   0.0166667   0.0833333   0.1500000), wk =   0.0035556
        k(   33) = (   0.0166667   0.0833333   0.1833333), wk =   0.0035556
        k(   34) = (   0.0166667   0.0833333   0.2166667), wk =   0.0035556
        k(   35) = (   0.0166667   0.0833333   0.2500000), wk =   0.0035556
        k(   36) = (   0.0166667   0.0833333   0.2833333), wk =   0.0035556
        k(   37) = (   0.0166667   0.0833333   0.3166667), wk =   0.0035556
        k(   38) = (   0.0166667   0.0833333   0.3500000), wk =   0.0035556
        k(   39) = (   0.0166667   0.0833333   0.3833333), wk =   0.0035556
        k(   40) = (   0.0166667   0.0833333   0.4166667), wk =   0.0035556
        k(   41) = (   0.0166667   0.0833333   0.4500000), wk =   0.0035556
        k(   42) = (   0.0166667   0.0833333   0.4833333), wk =   0.0035556
        k(   43) = (   0.0166667   0.1166667   0.1166667), wk =   0.0017778
        k(   44) = (   0.0166667   0.1166667   0.1500000), wk =   0.0035556
        k(   45) = (   0.0166667   0.1166667   0.1833333), wk =   0.0035556
        k(   46) = (   0.0166667   0.1166667   0.2166667), wk =   0.0035556
        k(   47) = (   0.0166667   0.1166667   0.2500000), wk =   0.0035556
        k(   48) = (   0.0166667   0.1166667   0.2833333), wk =   0.0035556
        k(   49) = (   0.0166667   0.1166667   0.3166667), wk =   0.0035556
        k(   50) = (   0.0166667   0.1166667   0.3500000), wk =   0.0035556
        k(   51) = (   0.0166667   0.1166667   0.3833333), wk =   0.0035556
        k(   52) = (   0.0166667   0.1166667   0.4166667), wk =   0.0035556
        k(   53) = (   0.0166667   0.1166667   0.4500000), wk =   0.0035556
        k(   54) = (   0.0166667   0.1166667   0.4833333), wk =   0.0035556
        k(   55) = (   0.0166667   0.1500000   0.1500000), wk =   0.0017778
        k(   56) = (   0.0166667   0.1500000   0.1833333), wk =   0.0035556
        k(   57) = (   0.0166667   0.1500000   0.2166667), wk =   0.0035556
        k(   58) = (   0.0166667   0.1500000   0.2500000), wk =   0.0035556
        k(   59) = (   0.0166667   0.1500000   0.2833333), wk =   0.0035556
        k(   60) = (   0.0166667   0.1500000   0.3166667), wk =   0.0035556
        k(   61) = (   0.0166667   0.1500000   0.3500000), wk =   0.0035556
        k(   62) = (   0.0166667   0.1500000   0.3833333), wk =   0.0035556
        k(   63) = (   0.0166667   0.1500000   0.4166667), wk =   0.0035556
        k(   64) = (   0.0166667   0.1500000   0.4500000), wk =   0.0035556
        k(   65) = (   0.0166667   0.1500000   0.4833333), wk =   0.0035556
        k(   66) = (   0.0166667   0.1833333   0.1833333), wk =   0.0017778
        k(   67) = (   0.0166667   0.1833333   0.2166667), wk =   0.0035556
        k(   68) = (   0.0166667   0.1833333   0.2500000), wk =   0.0035556
        k(   69) = (   0.0166667   0.1833333   0.2833333), wk =   0.0035556
        k(   70) = (   0.0166667   0.1833333   0.3166667), wk =   0.0035556
        k(   71) = (   0.0166667   0.1833333   0.3500000), wk =   0.0035556
        k(   72) = (   0.0166667   0.1833333   0.3833333), wk =   0.0035556
        k(   73) = (   0.0166667   0.1833333   0.4166667), wk =   0.0035556
        k(   74) = (   0.0166667   0.1833333   0.4500000), wk =   0.0035556
        k(   75) = (   0.0166667   0.1833333   0.4833333), wk =   0.0035556
        k(   76) = (   0.0166667   0.2166667   0.2166667), wk =   0.0017778
        k(   77) = (   0.0166667   0.2166667   0.2500000), wk =   0.0035556
        k(   78) = (   0.0166667   0.2166667   0.2833333), wk =   0.0035556
        k(   79) = (   0.0166667   0.2166667   0.3166667), wk =   0.0035556
        k(   80) = (   0.0166667   0.2166667   0.3500000), wk =   0.0035556
        k(   81) = (   0.0166667   0.2166667   0.3833333), wk =   0.0035556
        k(   82) = (   0.0166667   0.2166667   0.4166667), wk =   0.0035556
        k(   83) = (   0.0166667   0.2166667   0.4500000), wk =   0.0035556
        k(   84) = (   0.0166667   0.2166667   0.4833333), wk =   0.0035556
        k(   85) = (   0.0166667   0.2500000   0.2500000), wk =   0.0017778
        k(   86) = (   0.0166667   0.2500000   0.2833333), wk =   0.0035556
        k(   87) = (   0.0166667   0.2500000   0.3166667), wk =   0.0035556
        k(   88) = (   0.0166667   0.2500000   0.3500000), wk =   0.0035556
        k(   89) = (   0.0166667   0.2500000   0.3833333), wk =   0.0035556
        k(   90) = (   0.0166667   0.2500000   0.4166667), wk =   0.0035556
        k(   91) = (   0.0166667   0.2500000   0.4500000), wk =   0.0035556
        k(   92) = (   0.0166667   0.2500000   0.4833333), wk =   0.0035556
        k(   93) = (   0.0166667   0.2833333   0.2833333), wk =   0.0017778
        k(   94) = (   0.0166667   0.2833333   0.3166667), wk =   0.0035556
        k(   95) = (   0.0166667   0.2833333   0.3500000), wk =   0.0035556
        k(   96) = (   0.0166667   0.2833333   0.3833333), wk =   0.0035556
        k(   97) = (   0.0166667   0.2833333   0.4166667), wk =   0.0035556
        k(   98) = (   0.0166667   0.2833333   0.4500000), wk =   0.0035556
        k(   99) = (   0.0166667   0.2833333   0.4833333), wk =   0.0035556
        k(  100) = (   0.0166667   0.3166667   0.3166667), wk =   0.0017778
        k(  101) = (   0.0166667   0.3166667   0.3500000), wk =   0.0035556
        k(  102) = (   0.0166667   0.3166667   0.3833333), wk =   0.0035556
        k(  103) = (   0.0166667   0.3166667   0.4166667), wk =   0.0035556
        k(  104) = (   0.0166667   0.3166667   0.4500000), wk =   0.0035556
        k(  105) = (   0.0166667   0.3166667   0.4833333), wk =   0.0035556
        k(  106) = (   0.0166667   0.3500000   0.3500000), wk =   0.0017778
        k(  107) = (   0.0166667   0.3500000   0.3833333), wk =   0.0035556
        k(  108) = (   0.0166667   0.3500000   0.4166667), wk =   0.0035556
        k(  109) = (   0.0166667   0.3500000   0.4500000), wk =   0.0035556
        k(  110) = (   0.0166667   0.3500000   0.4833333), wk =   0.0035556
        k(  111) = (   0.0166667   0.3833333   0.3833333), wk =   0.0017778
        k(  112) = (   0.0166667   0.3833333   0.4166667), wk =   0.0035556
        k(  113) = (   0.0166667   0.3833333   0.4500000), wk =   0.0035556
        k(  114) = (   0.0166667   0.3833333   0.4833333), wk =   0.0035556
        k(  115) = (   0.0166667   0.4166667   0.4166667), wk =   0.0017778
        k(  116) = (   0.0166667   0.4166667   0.4500000), wk =   0.0035556
        k(  117) = (   0.0166667   0.4166667   0.4833333), wk =   0.0035556
        k(  118) = (   0.0166667   0.4500000   0.4500000), wk =   0.0017778
        k(  119) = (   0.0166667   0.4500000   0.4833333), wk =   0.0035556
        k(  120) = (   0.0166667   0.4833333   0.4833333), wk =   0.0017778
        k(  121) = (   0.0500000   0.0500000   0.0500000), wk =   0.0005926
        k(  122) = (   0.0500000   0.0500000   0.0833333), wk =   0.0017778
        k(  123) = (   0.0500000   0.0500000   0.1166667), wk =   0.0017778
        k(  124) = (   0.0500000   0.0500000   0.1500000), wk =   0.0017778
        k(  125) = (   0.0500000   0.0500000   0.1833333), wk =   0.0017778
        k(  126) = (   0.0500000   0.0500000   0.2166667), wk =   0.0017778
        k(  127) = (   0.0500000   0.0500000   0.2500000), wk =   0.0017778
        k(  128) = (   0.0500000   0.0500000   0.2833333), wk =   0.0017778
        k(  129) = (   0.0500000   0.0500000   0.3166667), wk =   0.0017778
        k(  130) = (   0.0500000   0.0500000   0.3500000), wk =   0.0017778
        k(  131) = (   0.0500000   0.0500000   0.3833333), wk =   0.0017778
        k(  132) = (   0.0500000   0.0500000   0.4166667), wk =   0.0017778
        k(  133) = (   0.0500000   0.0500000   0.4500000), wk =   0.0017778
        k(  134) = (   0.0500000   0.0500000   0.4833333), wk =   0.0017778
        k(  135) = (   0.0500000   0.0833333   0.0833333), wk =   0.0017778
        k(  136) = (   0.0500000   0.0833333   0.1166667), wk =   0.0035556
        k(  137) = (   0.0500000   0.0833333   0.1500000), wk =   0.0035556
        k(  138) = (   0.0500000   0.0833333   0.1833333), wk =   0.0035556
        k(  139) = (   0.0500000   0.0833333   0.2166667), wk =   0.0035556
        k(  140) = (   0.0500000   0.0833333   0.2500000), wk =   0.0035556
        k(  141) = (   0.0500000   0.0833333   0.2833333), wk =   0.0035556
        k(  142) = (   0.0500000   0.0833333   0.3166667), wk =   0.0035556
        k(  143) = (   0.0500000   0.0833333   0.3500000), wk =   0.0035556
        k(  144) = (   0.0500000   0.0833333   0.3833333), wk =   0.0035556
        k(  145) = (   0.0500000   0.0833333   0.4166667), wk =   0.0035556
        k(  146) = (   0.0500000   0.0833333   0.4500000), wk =   0.0035556
        k(  147) = (   0.0500000   0.0833333   0.4833333), wk =   0.0035556
        k(  148) = (   0.0500000   0.1166667   0.1166667), wk =   0.0017778
        k(  149) = (   0.0500000   0.1166667   0.1500000), wk =   0.0035556
        k(  150) = (   0.0500000   0.1166667   0.1833333), wk =   0.0035556
        k(  151) = (   0.0500000   0.1166667   0.2166667), wk =   0.0035556
        k(  152) = (   0.0500000   0.1166667   0.2500000), wk =   0.0035556
        k(  153) = (   0.0500000   0.1166667   0.2833333), wk =   0.0035556
        k(  154) = (   0.0500000   0.1166667   0.3166667), wk =   0.0035556
        k(  155) = (   0.0500000   0.1166667   0.3500000), wk =   0.0035556
        k(  156) = (   0.0500000   0.1166667   0.3833333), wk =   0.0035556
        k(  157) = (   0.0500000   0.1166667   0.4166667), wk =   0.0035556
        k(  158) = (   0.0500000   0.1166667   0.4500000), wk =   0.0035556
        k(  159) = (   0.0500000   0.1166667   0.4833333), wk =   0.0035556
        k(  160) = (   0.0500000   0.1500000   0.1500000), wk =   0.0017778
        k(  161) = (   0.0500000   0.1500000   0.1833333), wk =   0.0035556
        k(  162) = (   0.0500000   0.1500000   0.2166667), wk =   0.0035556
        k(  163) = (   0.0500000   0.1500000   0.2500000), wk =   0.0035556
        k(  164) = (   0.0500000   0.1500000   0.2833333), wk =   0.0035556
        k(  165) = (   0.0500000   0.1500000   0.3166667), wk =   0.0035556
        k(  166) = (   0.0500000   0.1500000   0.3500000), wk =   0.0035556
        k(  167) = (   0.0500000   0.1500000   0.3833333), wk =   0.0035556
        k(  168) = (   0.0500000   0.1500000   0.4166667), wk =   0.0035556
        k(  169) = (   0.0500000   0.1500000   0.4500000), wk =   0.0035556
        k(  170) = (   0.0500000   0.1500000   0.4833333), wk =   0.0035556
        k(  171) = (   0.0500000   0.1833333   0.1833333), wk =   0.0017778
        k(  172) = (   0.0500000   0.1833333   0.2166667), wk =   0.0035556
        k(  173) = (   0.0500000   0.1833333   0.2500000), wk =   0.0035556
        k(  174) = (   0.0500000   0.1833333   0.2833333), wk =   0.0035556
        k(  175) = (   0.0500000   0.1833333   0.3166667), wk =   0.0035556
        k(  176) = (   0.0500000   0.1833333   0.3500000), wk =   0.0035556
        k(  177) = (   0.0500000   0.1833333   0.3833333), wk =   0.0035556
        k(  178) = (   0.0500000   0.1833333   0.4166667), wk =   0.0035556
        k(  179) = (   0.0500000   0.1833333   0.4500000), wk =   0.0035556
        k(  180) = (   0.0500000   0.1833333   0.4833333), wk =   0.0035556
        k(  181) = (   0.0500000   0.2166667   0.2166667), wk =   0.0017778
        k(  182) = (   0.0500000   0.2166667   0.2500000), wk =   0.0035556
        k(  183) = (   0.0500000   0.2166667   0.2833333), wk =   0.0035556
        k(  184) = (   0.0500000   0.2166667   0.3166667), wk =   0.0035556
        k(  185) = (   0.0500000   0.2166667   0.3500000), wk =   0.0035556
        k(  186) = (   0.0500000   0.2166667   0.3833333), wk =   0.0035556
        k(  187) = (   0.0500000   0.2166667   0.4166667), wk =   0.0035556
        k(  188) = (   0.0500000   0.2166667   0.4500000), wk =   0.0035556
        k(  189) = (   0.0500000   0.2166667   0.4833333), wk =   0.0035556
        k(  190) = (   0.0500000   0.2500000   0.2500000), wk =   0.0017778
        k(  191) = (   0.0500000   0.2500000   0.2833333), wk =   0.0035556
        k(  192) = (   0.0500000   0.2500000   0.3166667), wk =   0.0035556
        k(  193) = (   0.0500000   0.2500000   0.3500000), wk =   0.0035556
        k(  194) = (   0.0500000   0.2500000   0.3833333), wk =   0.0035556
        k(  195) = (   0.0500000   0.2500000   0.4166667), wk =   0.0035556
        k(  196) = (   0.0500000   0.2500000   0.4500000), wk =   0.0035556
        k(  197) = (   0.0500000   0.2500000   0.4833333), wk =   0.0035556
        k(  198) = (   0.0500000   0.2833333   0.2833333), wk =   0.0017778
        k(  199) = (   0.0500000   0.2833333   0.3166667), wk =   0.0035556
        k(  200) = (   0.0500000   0.2833333   0.3500000), wk =   0.0035556
        k(  201) = (   0.0500000   0.2833333   0.3833333), wk =   0.0035556
        k(  202) = (   0.0500000   0.2833333   0.4166667), wk =   0.0035556
        k(  203) = (   0.0500000   0.2833333   0.4500000), wk =   0.0035556
        k(  204) = (   0.0500000   0.2833333   0.4833333), wk =   0.0035556
        k(  205) = (   0.0500000   0.3166667   0.3166667), wk =   0.0017778
        k(  206) = (   0.0500000   0.3166667   0.3500000), wk =   0.0035556
        k(  207) = (   0.0500000   0.3166667   0.3833333), wk =   0.0035556
        k(  208) = (   0.0500000   0.3166667   0.4166667), wk =   0.0035556
        k(  209) = (   0.0500000   0.3166667   0.4500000), wk =   0.0035556
        k(  210) = (   0.0500000   0.3166667   0.4833333), wk =   0.0035556
        k(  211) = (   0.0500000   0.3500000   0.3500000), wk =   0.0017778
        k(  212) = (   0.0500000   0.3500000   0.3833333), wk =   0.0035556
        k(  213) = (   0.0500000   0.3500000   0.4166667), wk =   0.0035556
        k(  214) = (   0.0500000   0.3500000   0.4500000), wk =   0.0035556
        k(  215) = (   0.0500000   0.3500000   0.4833333), wk =   0.0035556
        k(  216) = (   0.0500000   0.3833333   0.3833333), wk =   0.0017778
        k(  217) = (   0.0500000   0.3833333   0.4166667), wk =   0.0035556
        k(  218) = (   0.0500000   0.3833333   0.4500000), wk =   0.0035556
        k(  219) = (   0.0500000   0.3833333   0.4833333), wk =   0.0035556
        k(  220) = (   0.0500000   0.4166667   0.4166667), wk =   0.0017778
        k(  221) = (   0.0500000   0.4166667   0.4500000), wk =   0.0035556
        k(  222) = (   0.0500000   0.4166667   0.4833333), wk =   0.0035556
        k(  223) = (   0.0500000   0.4500000   0.4500000), wk =   0.0017778
        k(  224) = (   0.0500000   0.4500000   0.4833333), wk =   0.0035556
        k(  225) = (   0.0500000   0.4833333   0.4833333), wk =   0.0017778
        k(  226) = (   0.0833333   0.0833333   0.0833333), wk =   0.0005926
        k(  227) = (   0.0833333   0.0833333   0.1166667), wk =   0.0017778
        k(  228) = (   0.0833333   0.0833333   0.1500000), wk =   0.0017778
        k(  229) = (   0.0833333   0.0833333   0.1833333), wk =   0.0017778
        k(  230) = (   0.0833333   0.0833333   0.2166667), wk =   0.0017778
        k(  231) = (   0.0833333   0.0833333   0.2500000), wk =   0.0017778
        k(  232) = (   0.0833333   0.0833333   0.2833333), wk =   0.0017778
        k(  233) = (   0.0833333   0.0833333   0.3166667), wk =   0.0017778
        k(  234) = (   0.0833333   0.0833333   0.3500000), wk =   0.0017778
        k(  235) = (   0.0833333   0.0833333   0.3833333), wk =   0.0017778
        k(  236) = (   0.0833333   0.0833333   0.4166667), wk =   0.0017778
        k(  237) = (   0.0833333   0.0833333   0.4500000), wk =   0.0017778
        k(  238) = (   0.0833333   0.0833333   0.4833333), wk =   0.0017778
        k(  239) = (   0.0833333   0.1166667   0.1166667), wk =   0.0017778
        k(  240) = (   0.0833333   0.1166667   0.1500000), wk =   0.0035556
        k(  241) = (   0.0833333   0.1166667   0.1833333), wk =   0.0035556
        k(  242) = (   0.0833333   0.1166667   0.2166667), wk =   0.0035556
        k(  243) = (   0.0833333   0.1166667   0.2500000), wk =   0.0035556
        k(  244) = (   0.0833333   0.1166667   0.2833333), wk =   0.0035556
        k(  245) = (   0.0833333   0.1166667   0.3166667), wk =   0.0035556
        k(  246) = (   0.0833333   0.1166667   0.3500000), wk =   0.0035556
        k(  247) = (   0.0833333   0.1166667   0.3833333), wk =   0.0035556
        k(  248) = (   0.0833333   0.1166667   0.4166667), wk =   0.0035556
        k(  249) = (   0.0833333   0.1166667   0.4500000), wk =   0.0035556
        k(  250) = (   0.0833333   0.1166667   0.4833333), wk =   0.0035556
        k(  251) = (   0.0833333   0.1500000   0.1500000), wk =   0.0017778
        k(  252) = (   0.0833333   0.1500000   0.1833333), wk =   0.0035556
        k(  253) = (   0.0833333   0.1500000   0.2166667), wk =   0.0035556
        k(  254) = (   0.0833333   0.1500000   0.2500000), wk =   0.0035556
        k(  255) = (   0.0833333   0.1500000   0.2833333), wk =   0.0035556
        k(  256) = (   0.0833333   0.1500000   0.3166667), wk =   0.0035556
        k(  257) = (   0.0833333   0.1500000   0.3500000), wk =   0.0035556
        k(  258) = (   0.0833333   0.1500000   0.3833333), wk =   0.0035556
        k(  259) = (   0.0833333   0.1500000   0.4166667), wk =   0.0035556
        k(  260) = (   0.0833333   0.1500000   0.4500000), wk =   0.0035556
        k(  261) = (   0.0833333   0.1500000   0.4833333), wk =   0.0035556
        k(  262) = (   0.0833333   0.1833333   0.1833333), wk =   0.0017778
        k(  263) = (   0.0833333   0.1833333   0.2166667), wk =   0.0035556
        k(  264) = (   0.0833333   0.1833333   0.2500000), wk =   0.0035556
        k(  265) = (   0.0833333   0.1833333   0.2833333), wk =   0.0035556
        k(  266) = (   0.0833333   0.1833333   0.3166667), wk =   0.0035556
        k(  267) = (   0.0833333   0.1833333   0.3500000), wk =   0.0035556
        k(  268) = (   0.0833333   0.1833333   0.3833333), wk =   0.0035556
        k(  269) = (   0.0833333   0.1833333   0.4166667), wk =   0.0035556
        k(  270) = (   0.0833333   0.1833333   0.4500000), wk =   0.0035556
        k(  271) = (   0.0833333   0.1833333   0.4833333), wk =   0.0035556
        k(  272) = (   0.0833333   0.2166667   0.2166667), wk =   0.0017778
        k(  273) = (   0.0833333   0.2166667   0.2500000), wk =   0.0035556
        k(  274) = (   0.0833333   0.2166667   0.2833333), wk =   0.0035556
        k(  275) = (   0.0833333   0.2166667   0.3166667), wk =   0.0035556
        k(  276) = (   0.0833333   0.2166667   0.3500000), wk =   0.0035556
        k(  277) = (   0.0833333   0.2166667   0.3833333), wk =   0.0035556
        k(  278) = (   0.0833333   0.2166667   0.4166667), wk =   0.0035556
        k(  279) = (   0.0833333   0.2166667   0.4500000), wk =   0.0035556
        k(  280) = (   0.0833333   0.2166667   0.4833333), wk =   0.0035556
        k(  281) = (   0.0833333   0.2500000   0.2500000), wk =   0.0017778
        k(  282) = (   0.0833333   0.2500000   0.2833333), wk =   0.0035556
        k(  283) = (   0.0833333   0.2500000   0.3166667), wk =   0.0035556
        k(  284) = (   0.0833333   0.2500000   0.3500000), wk =   0.0035556
        k(  285) = (   0.0833333   0.2500000   0.3833333), wk =   0.0035556
        k(  286) = (   0.0833333   0.2500000   0.4166667), wk =   0.0035556
        k(  287) = (   0.0833333   0.2500000   0.4500000), wk =   0.0035556
        k(  288) = (   0.0833333   0.2500000   0.4833333), wk =   0.0035556
        k(  289) = (   0.0833333   0.2833333   0.2833333), wk =   0.0017778
        k(  290) = (   0.0833333   0.2833333   0.3166667), wk =   0.0035556
        k(  291) = (   0.0833333   0.2833333   0.3500000), wk =   0.0035556
        k(  292) = (   0.0833333   0.2833333   0.3833333), wk =   0.0035556
        k(  293) = (   0.0833333   0.2833333   0.4166667), wk =   0.0035556
        k(  294) = (   0.0833333   0.2833333   0.4500000), wk =   0.0035556
        k(  295) = (   0.0833333   0.2833333   0.4833333), wk =   0.0035556
        k(  296) = (   0.0833333   0.3166667   0.3166667), wk =   0.0017778
        k(  297) = (   0.0833333   0.3166667   0.3500000), wk =   0.0035556
        k(  298) = (   0.0833333   0.3166667   0.3833333), wk =   0.0035556
        k(  299) = (   0.0833333   0.3166667   0.4166667), wk =   0.0035556
        k(  300) = (   0.0833333   0.3166667   0.4500000), wk =   0.0035556
        k(  301) = (   0.0833333   0.3166667   0.4833333), wk =   0.0035556
        k(  302) = (   0.0833333   0.3500000   0.3500000), wk =   0.0017778
        k(  303) = (   0.0833333   0.3500000   0.3833333), wk =   0.0035556
        k(  304) = (   0.0833333   0.3500000   0.4166667), wk =   0.0035556
        k(  305) = (   0.0833333   0.3500000   0.4500000), wk =   0.0035556
        k(  306) = (   0.0833333   0.3500000   0.4833333), wk =   0.0035556
        k(  307) = (   0.0833333   0.3833333   0.3833333), wk =   0.0017778
        k(  308) = (   0.0833333   0.3833333   0.4166667), wk =   0.0035556
        k(  309) = (   0.0833333   0.3833333   0.4500000), wk =   0.0035556
        k(  310) = (   0.0833333   0.3833333   0.4833333), wk =   0.0035556
        k(  311) = (   0.0833333   0.4166667   0.4166667), wk =   0.0017778
        k(  312) = (   0.0833333   0.4166667   0.4500000), wk =   0.0035556
        k(  313) = (   0.0833333   0.4166667   0.4833333), wk =   0.0035556
        k(  314) = (   0.0833333   0.4500000   0.4500000), wk =   0.0017778
        k(  315) = (   0.0833333   0.4500000   0.4833333), wk =   0.0035556
        k(  316) = (   0.0833333   0.4833333   0.4833333), wk =   0.0017778
        k(  317) = (   0.1166667   0.1166667   0.1166667), wk =   0.0005926
        k(  318) = (   0.1166667   0.1166667   0.1500000), wk =   0.0017778
        k(  319) = (   0.1166667   0.1166667   0.1833333), wk =   0.0017778
        k(  320) = (   0.1166667   0.1166667   0.2166667), wk =   0.0017778
        k(  321) = (   0.1166667   0.1166667   0.2500000), wk =   0.0017778
        k(  322) = (   0.1166667   0.1166667   0.2833333), wk =   0.0017778
        k(  323) = (   0.1166667   0.1166667   0.3166667), wk =   0.0017778
        k(  324) = (   0.1166667   0.1166667   0.3500000), wk =   0.0017778
        k(  325) = (   0.1166667   0.1166667   0.3833333), wk =   0.0017778
        k(  326) = (   0.1166667   0.1166667   0.4166667), wk =   0.0017778
        k(  327) = (   0.1166667   0.1166667   0.4500000), wk =   0.0017778
        k(  328) = (   0.1166667   0.1166667   0.4833333), wk =   0.0017778
        k(  329) = (   0.1166667   0.1500000   0.1500000), wk =   0.0017778
        k(  330) = (   0.1166667   0.1500000   0.1833333), wk =   0.0035556
        k(  331) = (   0.1166667   0.1500000   0.2166667), wk =   0.0035556
        k(  332) = (   0.1166667   0.1500000   0.2500000), wk =   0.0035556
        k(  333) = (   0.1166667   0.1500000   0.2833333), wk =   0.0035556
        k(  334) = (   0.1166667   0.1500000   0.3166667), wk =   0.0035556
        k(  335) = (   0.1166667   0.1500000   0.3500000), wk =   0.0035556
        k(  336) = (   0.1166667   0.1500000   0.3833333), wk =   0.0035556
        k(  337) = (   0.1166667   0.1500000   0.4166667), wk =   0.0035556
        k(  338) = (   0.1166667   0.1500000   0.4500000), wk =   0.0035556
        k(  339) = (   0.1166667   0.1500000   0.4833333), wk =   0.0035556
        k(  340) = (   0.1166667   0.1833333   0.1833333), wk =   0.0017778
        k(  341) = (   0.1166667   0.1833333   0.2166667), wk =   0.0035556
        k(  342) = (   0.1166667   0.1833333   0.2500000), wk =   0.0035556
        k(  343) = (   0.1166667   0.1833333   0.2833333), wk =   0.0035556
        k(  344) = (   0.1166667   0.1833333   0.3166667), wk =   0.0035556
        k(  345) = (   0.1166667   0.1833333   0.3500000), wk =   0.0035556
        k(  346) = (   0.1166667   0.1833333   0.3833333), wk =   0.0035556
        k(  347) = (   0.1166667   0.1833333   0.4166667), wk =   0.0035556
        k(  348) = (   0.1166667   0.1833333   0.4500000), wk =   0.0035556
        k(  349) = (   0.1166667   0.1833333   0.4833333), wk =   0.0035556
        k(  350) = (   0.1166667   0.2166667   0.2166667), wk =   0.0017778
        k(  351) = (   0.1166667   0.2166667   0.2500000), wk =   0.0035556
        k(  352) = (   0.1166667   0.2166667   0.2833333), wk =   0.0035556
        k(  353) = (   0.1166667   0.2166667   0.3166667), wk =   0.0035556
        k(  354) = (   0.1166667   0.2166667   0.3500000), wk =   0.0035556
        k(  355) = (   0.1166667   0.2166667   0.3833333), wk =   0.0035556
        k(  356) = (   0.1166667   0.2166667   0.4166667), wk =   0.0035556
        k(  357) = (   0.1166667   0.2166667   0.4500000), wk =   0.0035556
        k(  358) = (   0.1166667   0.2166667   0.4833333), wk =   0.0035556
        k(  359) = (   0.1166667   0.2500000   0.2500000), wk =   0.0017778
        k(  360) = (   0.1166667   0.2500000   0.2833333), wk =   0.0035556
        k(  361) = (   0.1166667   0.2500000   0.3166667), wk =   0.0035556
        k(  362) = (   0.1166667   0.2500000   0.3500000), wk =   0.0035556
        k(  363) = (   0.1166667   0.2500000   0.3833333), wk =   0.0035556
        k(  364) = (   0.1166667   0.2500000   0.4166667), wk =   0.0035556
        k(  365) = (   0.1166667   0.2500000   0.4500000), wk =   0.0035556
        k(  366) = (   0.1166667   0.2500000   0.4833333), wk =   0.0035556
        k(  367) = (   0.1166667   0.2833333   0.2833333), wk =   0.0017778
        k(  368) = (   0.1166667   0.2833333   0.3166667), wk =   0.0035556
        k(  369) = (   0.1166667   0.2833333   0.3500000), wk =   0.0035556
        k(  370) = (   0.1166667   0.2833333   0.3833333), wk =   0.0035556
        k(  371) = (   0.1166667   0.2833333   0.4166667), wk =   0.0035556
        k(  372) = (   0.1166667   0.2833333   0.4500000), wk =   0.0035556
        k(  373) = (   0.1166667   0.2833333   0.4833333), wk =   0.0035556
        k(  374) = (   0.1166667   0.3166667   0.3166667), wk =   0.0017778
        k(  375) = (   0.1166667   0.3166667   0.3500000), wk =   0.0035556
        k(  376) = (   0.1166667   0.3166667   0.3833333), wk =   0.0035556
        k(  377) = (   0.1166667   0.3166667   0.4166667), wk =   0.0035556
        k(  378) = (   0.1166667   0.3166667   0.4500000), wk =   0.0035556
        k(  379) = (   0.1166667   0.3166667   0.4833333), wk =   0.0035556
        k(  380) = (   0.1166667   0.3500000   0.3500000), wk =   0.0017778
        k(  381) = (   0.1166667   0.3500000   0.3833333), wk =   0.0035556
        k(  382) = (   0.1166667   0.3500000   0.4166667), wk =   0.0035556
        k(  383) = (   0.1166667   0.3500000   0.4500000), wk =   0.0035556
        k(  384) = (   0.1166667   0.3500000   0.4833333), wk =   0.0035556
        k(  385) = (   0.1166667   0.3833333   0.3833333), wk =   0.0017778
        k(  386) = (   0.1166667   0.3833333   0.4166667), wk =   0.0035556
        k(  387) = (   0.1166667   0.3833333   0.4500000), wk =   0.0035556
        k(  388) = (   0.1166667   0.3833333   0.4833333), wk =   0.0035556
        k(  389) = (   0.1166667   0.4166667   0.4166667), wk =   0.0017778
        k(  390) = (   0.1166667   0.4166667   0.4500000), wk =   0.0035556
        k(  391) = (   0.1166667   0.4166667   0.4833333), wk =   0.0035556
        k(  392) = (   0.1166667   0.4500000   0.4500000), wk =   0.0017778
        k(  393) = (   0.1166667   0.4500000   0.4833333), wk =   0.0035556
        k(  394) = (   0.1166667   0.4833333   0.4833333), wk =   0.0017778
        k(  395) = (   0.1500000   0.1500000   0.1500000), wk =   0.0005926
        k(  396) = (   0.1500000   0.1500000   0.1833333), wk =   0.0017778
        k(  397) = (   0.1500000   0.1500000   0.2166667), wk =   0.0017778
        k(  398) = (   0.1500000   0.1500000   0.2500000), wk =   0.0017778
        k(  399) = (   0.1500000   0.1500000   0.2833333), wk =   0.0017778
        k(  400) = (   0.1500000   0.1500000   0.3166667), wk =   0.0017778
        k(  401) = (   0.1500000   0.1500000   0.3500000), wk =   0.0017778
        k(  402) = (   0.1500000   0.1500000   0.3833333), wk =   0.0017778
        k(  403) = (   0.1500000   0.1500000   0.4166667), wk =   0.0017778
        k(  404) = (   0.1500000   0.1500000   0.4500000), wk =   0.0017778
        k(  405) = (   0.1500000   0.1500000   0.4833333), wk =   0.0017778
        k(  406) = (   0.1500000   0.1833333   0.1833333), wk =   0.0017778
        k(  407) = (   0.1500000   0.1833333   0.2166667), wk =   0.0035556
        k(  408) = (   0.1500000   0.1833333   0.2500000), wk =   0.0035556
        k(  409) = (   0.1500000   0.1833333   0.2833333), wk =   0.0035556
        k(  410) = (   0.1500000   0.1833333   0.3166667), wk =   0.0035556
        k(  411) = (   0.1500000   0.1833333   0.3500000), wk =   0.0035556
        k(  412) = (   0.1500000   0.1833333   0.3833333), wk =   0.0035556
        k(  413) = (   0.1500000   0.1833333   0.4166667), wk =   0.0035556
        k(  414) = (   0.1500000   0.1833333   0.4500000), wk =   0.0035556
        k(  415) = (   0.1500000   0.1833333   0.4833333), wk =   0.0035556
        k(  416) = (   0.1500000   0.2166667   0.2166667), wk =   0.0017778
        k(  417) = (   0.1500000   0.2166667   0.2500000), wk =   0.0035556
        k(  418) = (   0.1500000   0.2166667   0.2833333), wk =   0.0035556
        k(  419) = (   0.1500000   0.2166667   0.3166667), wk =   0.0035556
        k(  420) = (   0.1500000   0.2166667   0.3500000), wk =   0.0035556
        k(  421) = (   0.1500000   0.2166667   0.3833333), wk =   0.0035556
        k(  422) = (   0.1500000   0.2166667   0.4166667), wk =   0.0035556
        k(  423) = (   0.1500000   0.2166667   0.4500000), wk =   0.0035556
        k(  424) = (   0.1500000   0.2166667   0.4833333), wk =   0.0035556
        k(  425) = (   0.1500000   0.2500000   0.2500000), wk =   0.0017778
        k(  426) = (   0.1500000   0.2500000   0.2833333), wk =   0.0035556
        k(  427) = (   0.1500000   0.2500000   0.3166667), wk =   0.0035556
        k(  428) = (   0.1500000   0.2500000   0.3500000), wk =   0.0035556
        k(  429) = (   0.1500000   0.2500000   0.3833333), wk =   0.0035556
        k(  430) = (   0.1500000   0.2500000   0.4166667), wk =   0.0035556
        k(  431) = (   0.1500000   0.2500000   0.4500000), wk =   0.0035556
        k(  432) = (   0.1500000   0.2500000   0.4833333), wk =   0.0035556
        k(  433) = (   0.1500000   0.2833333   0.2833333), wk =   0.0017778
        k(  434) = (   0.1500000   0.2833333   0.3166667), wk =   0.0035556
        k(  435) = (   0.1500000   0.2833333   0.3500000), wk =   0.0035556
        k(  436) = (   0.1500000   0.2833333   0.3833333), wk =   0.0035556
        k(  437) = (   0.1500000   0.2833333   0.4166667), wk =   0.0035556
        k(  438) = (   0.1500000   0.2833333   0.4500000), wk =   0.0035556
        k(  439) = (   0.1500000   0.2833333   0.4833333), wk =   0.0035556
        k(  440) = (   0.1500000   0.3166667   0.3166667), wk =   0.0017778
        k(  441) = (   0.1500000   0.3166667   0.3500000), wk =   0.0035556
        k(  442) = (   0.1500000   0.3166667   0.3833333), wk =   0.0035556
        k(  443) = (   0.1500000   0.3166667   0.4166667), wk =   0.0035556
        k(  444) = (   0.1500000   0.3166667   0.4500000), wk =   0.0035556
        k(  445) = (   0.1500000   0.3166667   0.4833333), wk =   0.0035556
        k(  446) = (   0.1500000   0.3500000   0.3500000), wk =   0.0017778
        k(  447) = (   0.1500000   0.3500000   0.3833333), wk =   0.0035556
        k(  448) = (   0.1500000   0.3500000   0.4166667), wk =   0.0035556
        k(  449) = (   0.1500000   0.3500000   0.4500000), wk =   0.0035556
        k(  450) = (   0.1500000   0.3500000   0.4833333), wk =   0.0035556
        k(  451) = (   0.1500000   0.3833333   0.3833333), wk =   0.0017778
        k(  452) = (   0.1500000   0.3833333   0.4166667), wk =   0.0035556
        k(  453) = (   0.1500000   0.3833333   0.4500000), wk =   0.0035556
        k(  454) = (   0.1500000   0.3833333   0.4833333), wk =   0.0035556
        k(  455) = (   0.1500000   0.4166667   0.4166667), wk =   0.0017778
        k(  456) = (   0.1500000   0.4166667   0.4500000), wk =   0.0035556
        k(  457) = (   0.1500000   0.4166667   0.4833333), wk =   0.0035556
        k(  458) = (   0.1500000   0.4500000   0.4500000), wk =   0.0017778
        k(  459) = (   0.1500000   0.4500000   0.4833333), wk =   0.0035556
        k(  460) = (   0.1500000   0.4833333   0.4833333), wk =   0.0017778
        k(  461) = (   0.1833333   0.1833333   0.1833333), wk =   0.0005926
        k(  462) = (   0.1833333   0.1833333   0.2166667), wk =   0.0017778
        k(  463) = (   0.1833333   0.1833333   0.2500000), wk =   0.0017778
        k(  464) = (   0.1833333   0.1833333   0.2833333), wk =   0.0017778
        k(  465) = (   0.1833333   0.1833333   0.3166667), wk =   0.0017778
        k(  466) = (   0.1833333   0.1833333   0.3500000), wk =   0.0017778
        k(  467) = (   0.1833333   0.1833333   0.3833333), wk =   0.0017778
        k(  468) = (   0.1833333   0.1833333   0.4166667), wk =   0.0017778
        k(  469) = (   0.1833333   0.1833333   0.4500000), wk =   0.0017778
        k(  470) = (   0.1833333   0.1833333   0.4833333), wk =   0.0017778
        k(  471) = (   0.1833333   0.2166667   0.2166667), wk =   0.0017778
        k(  472) = (   0.1833333   0.2166667   0.2500000), wk =   0.0035556
        k(  473) = (   0.1833333   0.2166667   0.2833333), wk =   0.0035556
        k(  474) = (   0.1833333   0.2166667   0.3166667), wk =   0.0035556
        k(  475) = (   0.1833333   0.2166667   0.3500000), wk =   0.0035556
        k(  476) = (   0.1833333   0.2166667   0.3833333), wk =   0.0035556
        k(  477) = (   0.1833333   0.2166667   0.4166667), wk =   0.0035556
        k(  478) = (   0.1833333   0.2166667   0.4500000), wk =   0.0035556
        k(  479) = (   0.1833333   0.2166667   0.4833333), wk =   0.0035556
        k(  480) = (   0.1833333   0.2500000   0.2500000), wk =   0.0017778
        k(  481) = (   0.1833333   0.2500000   0.2833333), wk =   0.0035556
        k(  482) = (   0.1833333   0.2500000   0.3166667), wk =   0.0035556
        k(  483) = (   0.1833333   0.2500000   0.3500000), wk =   0.0035556
        k(  484) = (   0.1833333   0.2500000   0.3833333), wk =   0.0035556
        k(  485) = (   0.1833333   0.2500000   0.4166667), wk =   0.0035556
        k(  486) = (   0.1833333   0.2500000   0.4500000), wk =   0.0035556
        k(  487) = (   0.1833333   0.2500000   0.4833333), wk =   0.0035556
        k(  488) = (   0.1833333   0.2833333   0.2833333), wk =   0.0017778
        k(  489) = (   0.1833333   0.2833333   0.3166667), wk =   0.0035556
        k(  490) = (   0.1833333   0.2833333   0.3500000), wk =   0.0035556
        k(  491) = (   0.1833333   0.2833333   0.3833333), wk =   0.0035556
        k(  492) = (   0.1833333   0.2833333   0.4166667), wk =   0.0035556
        k(  493) = (   0.1833333   0.2833333   0.4500000), wk =   0.0035556
        k(  494) = (   0.1833333   0.2833333   0.4833333), wk =   0.0035556
        k(  495) = (   0.1833333   0.3166667   0.3166667), wk =   0.0017778
        k(  496) = (   0.1833333   0.3166667   0.3500000), wk =   0.0035556
        k(  497) = (   0.1833333   0.3166667   0.3833333), wk =   0.0035556
        k(  498) = (   0.1833333   0.3166667   0.4166667), wk =   0.0035556
        k(  499) = (   0.1833333   0.3166667   0.4500000), wk =   0.0035556
        k(  500) = (   0.1833333   0.3166667   0.4833333), wk =   0.0035556
        k(  501) = (   0.1833333   0.3500000   0.3500000), wk =   0.0017778
        k(  502) = (   0.1833333   0.3500000   0.3833333), wk =   0.0035556
        k(  503) = (   0.1833333   0.3500000   0.4166667), wk =   0.0035556
        k(  504) = (   0.1833333   0.3500000   0.4500000), wk =   0.0035556
        k(  505) = (   0.1833333   0.3500000   0.4833333), wk =   0.0035556
        k(  506) = (   0.1833333   0.3833333   0.3833333), wk =   0.0017778
        k(  507) = (   0.1833333   0.3833333   0.4166667), wk =   0.0035556
        k(  508) = (   0.1833333   0.3833333   0.4500000), wk =   0.0035556
        k(  509) = (   0.1833333   0.3833333   0.4833333), wk =   0.0035556
        k(  510) = (   0.1833333   0.4166667   0.4166667), wk =   0.0017778
        k(  511) = (   0.1833333   0.4166667   0.4500000), wk =   0.0035556
        k(  512) = (   0.1833333   0.4166667   0.4833333), wk =   0.0035556
        k(  513) = (   0.1833333   0.4500000   0.4500000), wk =   0.0017778
        k(  514) = (   0.1833333   0.4500000   0.4833333), wk =   0.0035556
        k(  515) = (   0.1833333   0.4833333   0.4833333), wk =   0.0017778
        k(  516) = (   0.2166667   0.2166667   0.2166667), wk =   0.0005926
        k(  517) = (   0.2166667   0.2166667   0.2500000), wk =   0.0017778
        k(  518) = (   0.2166667   0.2166667   0.2833333), wk =   0.0017778
        k(  519) = (   0.2166667   0.2166667   0.3166667), wk =   0.0017778
        k(  520) = (   0.2166667   0.2166667   0.3500000), wk =   0.0017778
        k(  521) = (   0.2166667   0.2166667   0.3833333), wk =   0.0017778
        k(  522) = (   0.2166667   0.2166667   0.4166667), wk =   0.0017778
        k(  523) = (   0.2166667   0.2166667   0.4500000), wk =   0.0017778
        k(  524) = (   0.2166667   0.2166667   0.4833333), wk =   0.0017778
        k(  525) = (   0.2166667   0.2500000   0.2500000), wk =   0.0017778
        k(  526) = (   0.2166667   0.2500000   0.2833333), wk =   0.0035556
        k(  527) = (   0.2166667   0.2500000   0.3166667), wk =   0.0035556
        k(  528) = (   0.2166667   0.2500000   0.3500000), wk =   0.0035556
        k(  529) = (   0.2166667   0.2500000   0.3833333), wk =   0.0035556
        k(  530) = (   0.2166667   0.2500000   0.4166667), wk =   0.0035556
        k(  531) = (   0.2166667   0.2500000   0.4500000), wk =   0.0035556
        k(  532) = (   0.2166667   0.2500000   0.4833333), wk =   0.0035556
        k(  533) = (   0.2166667   0.2833333   0.2833333), wk =   0.0017778
        k(  534) = (   0.2166667   0.2833333   0.3166667), wk =   0.0035556
        k(  535) = (   0.2166667   0.2833333   0.3500000), wk =   0.0035556
        k(  536) = (   0.2166667   0.2833333   0.3833333), wk =   0.0035556
        k(  537) = (   0.2166667   0.2833333   0.4166667), wk =   0.0035556
        k(  538) = (   0.2166667   0.2833333   0.4500000), wk =   0.0035556
        k(  539) = (   0.2166667   0.2833333   0.4833333), wk =   0.0035556
        k(  540) = (   0.2166667   0.3166667   0.3166667), wk =   0.0017778
        k(  541) = (   0.2166667   0.3166667   0.3500000), wk =   0.0035556
        k(  542) = (   0.2166667   0.3166667   0.3833333), wk =   0.0035556
        k(  543) = (   0.2166667   0.3166667   0.4166667), wk =   0.0035556
        k(  544) = (   0.2166667   0.3166667   0.4500000), wk =   0.0035556
        k(  545) = (   0.2166667   0.3166667   0.4833333), wk =   0.0035556
        k(  546) = (   0.2166667   0.3500000   0.3500000), wk =   0.0017778
        k(  547) = (   0.2166667   0.3500000   0.3833333), wk =   0.0035556
        k(  548) = (   0.2166667   0.3500000   0.4166667), wk =   0.0035556
        k(  549) = (   0.2166667   0.3500000   0.4500000), wk =   0.0035556
        k(  550) = (   0.2166667   0.3500000   0.4833333), wk =   0.0035556
        k(  551) = (   0.2166667   0.3833333   0.3833333), wk =   0.0017778
        k(  552) = (   0.2166667   0.3833333   0.4166667), wk =   0.0035556
        k(  553) = (   0.2166667   0.3833333   0.4500000), wk =   0.0035556
        k(  554) = (   0.2166667   0.3833333   0.4833333), wk =   0.0035556
        k(  555) = (   0.2166667   0.4166667   0.4166667), wk =   0.0017778
        k(  556) = (   0.2166667   0.4166667   0.4500000), wk =   0.0035556
        k(  557) = (   0.2166667   0.4166667   0.4833333), wk =   0.0035556
        k(  558) = (   0.2166667   0.4500000   0.4500000), wk =   0.0017778
        k(  559) = (   0.2166667   0.4500000   0.4833333), wk =   0.0035556
        k(  560) = (   0.2166667   0.4833333   0.4833333), wk =   0.0017778
        k(  561) = (   0.2500000   0.2500000   0.2500000), wk =   0.0005926
        k(  562) = (   0.2500000   0.2500000   0.2833333), wk =   0.0017778
        k(  563) = (   0.2500000   0.2500000   0.3166667), wk =   0.0017778
        k(  564) = (   0.2500000   0.2500000   0.3500000), wk =   0.0017778
        k(  565) = (   0.2500000   0.2500000   0.3833333), wk =   0.0017778
        k(  566) = (   0.2500000   0.2500000   0.4166667), wk =   0.0017778
        k(  567) = (   0.2500000   0.2500000   0.4500000), wk =   0.0017778
        k(  568) = (   0.2500000   0.2500000   0.4833333), wk =   0.0017778
        k(  569) = (   0.2500000   0.2833333   0.2833333), wk =   0.0017778
        k(  570) = (   0.2500000   0.2833333   0.3166667), wk =   0.0035556
        k(  571) = (   0.2500000   0.2833333   0.3500000), wk =   0.0035556
        k(  572) = (   0.2500000   0.2833333   0.3833333), wk =   0.0035556
        k(  573) = (   0.2500000   0.2833333   0.4166667), wk =   0.0035556
        k(  574) = (   0.2500000   0.2833333   0.4500000), wk =   0.0035556
        k(  575) = (   0.2500000   0.2833333   0.4833333), wk =   0.0035556
        k(  576) = (   0.2500000   0.3166667   0.3166667), wk =   0.0017778
        k(  577) = (   0.2500000   0.3166667   0.3500000), wk =   0.0035556
        k(  578) = (   0.2500000   0.3166667   0.3833333), wk =   0.0035556
        k(  579) = (   0.2500000   0.3166667   0.4166667), wk =   0.0035556
        k(  580) = (   0.2500000   0.3166667   0.4500000), wk =   0.0035556
        k(  581) = (   0.2500000   0.3166667   0.4833333), wk =   0.0035556
        k(  582) = (   0.2500000   0.3500000   0.3500000), wk =   0.0017778
        k(  583) = (   0.2500000   0.3500000   0.3833333), wk =   0.0035556
        k(  584) = (   0.2500000   0.3500000   0.4166667), wk =   0.0035556
        k(  585) = (   0.2500000   0.3500000   0.4500000), wk =   0.0035556
        k(  586) = (   0.2500000   0.3500000   0.4833333), wk =   0.0035556
        k(  587) = (   0.2500000   0.3833333   0.3833333), wk =   0.0017778
        k(  588) = (   0.2500000   0.3833333   0.4166667), wk =   0.0035556
        k(  589) = (   0.2500000   0.3833333   0.4500000), wk =   0.0035556
        k(  590) = (   0.2500000   0.3833333   0.4833333), wk =   0.0035556
        k(  591) = (   0.2500000   0.4166667   0.4166667), wk =   0.0017778
        k(  592) = (   0.2500000   0.4166667   0.4500000), wk =   0.0035556
        k(  593) = (   0.2500000   0.4166667   0.4833333), wk =   0.0035556
        k(  594) = (   0.2500000   0.4500000   0.4500000), wk =   0.0017778
        k(  595) = (   0.2500000   0.4500000   0.4833333), wk =   0.0035556
        k(  596) = (   0.2500000   0.4833333   0.4833333), wk =   0.0017778
        k(  597) = (   0.2833333   0.2833333   0.2833333), wk =   0.0005926
        k(  598) = (   0.2833333   0.2833333   0.3166667), wk =   0.0017778
        k(  599) = (   0.2833333   0.2833333   0.3500000), wk =   0.0017778
        k(  600) = (   0.2833333   0.2833333   0.3833333), wk =   0.0017778
        k(  601) = (   0.2833333   0.2833333   0.4166667), wk =   0.0017778
        k(  602) = (   0.2833333   0.2833333   0.4500000), wk =   0.0017778
        k(  603) = (   0.2833333   0.2833333   0.4833333), wk =   0.0017778
        k(  604) = (   0.2833333   0.3166667   0.3166667), wk =   0.0017778
        k(  605) = (   0.2833333   0.3166667   0.3500000), wk =   0.0035556
        k(  606) = (   0.2833333   0.3166667   0.3833333), wk =   0.0035556
        k(  607) = (   0.2833333   0.3166667   0.4166667), wk =   0.0035556
        k(  608) = (   0.2833333   0.3166667   0.4500000), wk =   0.0035556
        k(  609) = (   0.2833333   0.3166667   0.4833333), wk =   0.0035556
        k(  610) = (   0.2833333   0.3500000   0.3500000), wk =   0.0017778
        k(  611) = (   0.2833333   0.3500000   0.3833333), wk =   0.0035556
        k(  612) = (   0.2833333   0.3500000   0.4166667), wk =   0.0035556
        k(  613) = (   0.2833333   0.3500000   0.4500000), wk =   0.0035556
        k(  614) = (   0.2833333   0.3500000   0.4833333), wk =   0.0035556
        k(  615) = (   0.2833333   0.3833333   0.3833333), wk =   0.0017778
        k(  616) = (   0.2833333   0.3833333   0.4166667), wk =   0.0035556
        k(  617) = (   0.2833333   0.3833333   0.4500000), wk =   0.0035556
        k(  618) = (   0.2833333   0.3833333   0.4833333), wk =   0.0035556
        k(  619) = (   0.2833333   0.4166667   0.4166667), wk =   0.0017778
        k(  620) = (   0.2833333   0.4166667   0.4500000), wk =   0.0035556
        k(  621) = (   0.2833333   0.4166667   0.4833333), wk =   0.0035556
        k(  622) = (   0.2833333   0.4500000   0.4500000), wk =   0.0017778
        k(  623) = (   0.2833333   0.4500000   0.4833333), wk =   0.0035556
        k(  624) = (   0.2833333   0.4833333   0.4833333), wk =   0.0017778
        k(  625) = (   0.3166667   0.3166667   0.3166667), wk =   0.0005926
        k(  626) = (   0.3166667   0.3166667   0.3500000), wk =   0.0017778
        k(  627) = (   0.3166667   0.3166667   0.3833333), wk =   0.0017778
        k(  628) = (   0.3166667   0.3166667   0.4166667), wk =   0.0017778
        k(  629) = (   0.3166667   0.3166667   0.4500000), wk =   0.0017778
        k(  630) = (   0.3166667   0.3166667   0.4833333), wk =   0.0017778
        k(  631) = (   0.3166667   0.3500000   0.3500000), wk =   0.0017778
        k(  632) = (   0.3166667   0.3500000   0.3833333), wk =   0.0035556
        k(  633) = (   0.3166667   0.3500000   0.4166667), wk =   0.0035556
        k(  634) = (   0.3166667   0.3500000   0.4500000), wk =   0.0035556
        k(  635) = (   0.3166667   0.3500000   0.4833333), wk =   0.0035556
        k(  636) = (   0.3166667   0.3833333   0.3833333), wk =   0.0017778
        k(  637) = (   0.3166667   0.3833333   0.4166667), wk =   0.0035556
        k(  638) = (   0.3166667   0.3833333   0.4500000), wk =   0.0035556
        k(  639) = (   0.3166667   0.3833333   0.4833333), wk =   0.0035556
        k(  640) = (   0.3166667   0.4166667   0.4166667), wk =   0.0017778
        k(  641) = (   0.3166667   0.4166667   0.4500000), wk =   0.0035556
        k(  642) = (   0.3166667   0.4166667   0.4833333), wk =   0.0035556
        k(  643) = (   0.3166667   0.4500000   0.4500000), wk =   0.0017778
        k(  644) = (   0.3166667   0.4500000   0.4833333), wk =   0.0035556
        k(  645) = (   0.3166667   0.4833333   0.4833333), wk =   0.0017778
        k(  646) = (   0.3500000   0.3500000   0.3500000), wk =   0.0005926
        k(  647) = (   0.3500000   0.3500000   0.3833333), wk =   0.0017778
        k(  648) = (   0.3500000   0.3500000   0.4166667), wk =   0.0017778
        k(  649) = (   0.3500000   0.3500000   0.4500000), wk =   0.0017778
        k(  650) = (   0.3500000   0.3500000   0.4833333), wk =   0.0017778
        k(  651) = (   0.3500000   0.3833333   0.3833333), wk =   0.0017778
        k(  652) = (   0.3500000   0.3833333   0.4166667), wk =   0.0035556
        k(  653) = (   0.3500000   0.3833333   0.4500000), wk =   0.0035556
        k(  654) = (   0.3500000   0.3833333   0.4833333), wk =   0.0035556
        k(  655) = (   0.3500000   0.4166667   0.4166667), wk =   0.0017778
        k(  656) = (   0.3500000   0.4166667   0.4500000), wk =   0.0035556
        k(  657) = (   0.3500000   0.4166667   0.4833333), wk =   0.0035556
        k(  658) = (   0.3500000   0.4500000   0.4500000), wk =   0.0017778
        k(  659) = (   0.3500000   0.4500000   0.4833333), wk =   0.0035556
        k(  660) = (   0.3500000   0.4833333   0.4833333), wk =   0.0017778
        k(  661) = (   0.3833333   0.3833333   0.3833333), wk =   0.0005926
        k(  662) = (   0.3833333   0.3833333   0.4166667), wk =   0.0017778
        k(  663) = (   0.3833333   0.3833333   0.4500000), wk =   0.0017778
        k(  664) = (   0.3833333   0.3833333   0.4833333), wk =   0.0017778
        k(  665) = (   0.3833333   0.4166667   0.4166667), wk =   0.0017778
        k(  666) = (   0.3833333   0.4166667   0.4500000), wk =   0.0035556
        k(  667) = (   0.3833333   0.4166667   0.4833333), wk =   0.0035556
        k(  668) = (   0.3833333   0.4500000   0.4500000), wk =   0.0017778
        k(  669) = (   0.3833333   0.4500000   0.4833333), wk =   0.0035556
        k(  670) = (   0.3833333   0.4833333   0.4833333), wk =   0.0017778
        k(  671) = (   0.4166667   0.4166667   0.4166667), wk =   0.0005926
        k(  672) = (   0.4166667   0.4166667   0.4500000), wk =   0.0017778
        k(  673) = (   0.4166667   0.4166667   0.4833333), wk =   0.0017778
        k(  674) = (   0.4166667   0.4500000   0.4500000), wk =   0.0017778
        k(  675) = (   0.4166667   0.4500000   0.4833333), wk =   0.0035556
        k(  676) = (   0.4166667   0.4833333   0.4833333), wk =   0.0017778
        k(  677) = (   0.4500000   0.4500000   0.4500000), wk =   0.0005926
        k(  678) = (   0.4500000   0.4500000   0.4833333), wk =   0.0017778
        k(  679) = (   0.4500000   0.4833333   0.4833333), wk =   0.0017778
        k(  680) = (   0.4833333   0.4833333   0.4833333), wk =   0.0005926

                       cryst. coord.
        k(    1) = (   0.0166667   0.0166667   0.0166667), wk =   0.0005926
        k(    2) = (   0.0166667   0.0166667   0.0500000), wk =   0.0017778
        k(    3) = (   0.0166667   0.0166667   0.0833333), wk =   0.0017778
        k(    4) = (   0.0166667   0.0166667   0.1166667), wk =   0.0017778
        k(    5) = (   0.0166667   0.0166667   0.1500000), wk =   0.0017778
        k(    6) = (   0.0166667   0.0166667   0.1833333), wk =   0.0017778
        k(    7) = (   0.0166667   0.0166667   0.2166667), wk =   0.0017778
        k(    8) = (   0.0166667   0.0166667   0.2500000), wk =   0.0017778
        k(    9) = (   0.0166667   0.0166667   0.2833333), wk =   0.0017778
        k(   10) = (   0.0166667   0.0166667   0.3166667), wk =   0.0017778
        k(   11) = (   0.0166667   0.0166667   0.3500000), wk =   0.0017778
        k(   12) = (   0.0166667   0.0166667   0.3833333), wk =   0.0017778
        k(   13) = (   0.0166667   0.0166667   0.4166667), wk =   0.0017778
        k(   14) = (   0.0166667   0.0166667   0.4500000), wk =   0.0017778
        k(   15) = (   0.0166667   0.0166667   0.4833333), wk =   0.0017778
        k(   16) = (   0.0166667   0.0500000   0.0500000), wk =   0.0017778
        k(   17) = (   0.0166667   0.0500000   0.0833333), wk =   0.0035556
        k(   18) = (   0.0166667   0.0500000   0.1166667), wk =   0.0035556
        k(   19) = (   0.0166667   0.0500000   0.1500000), wk =   0.0035556
        k(   20) = (   0.0166667   0.0500000   0.1833333), wk =   0.0035556
        k(   21) = (   0.0166667   0.0500000   0.2166667), wk =   0.0035556
        k(   22) = (   0.0166667   0.0500000   0.2500000), wk =   0.0035556
        k(   23) = (   0.0166667   0.0500000   0.2833333), wk =   0.0035556
        k(   24) = (   0.0166667   0.0500000   0.3166667), wk =   0.0035556
        k(   25) = (   0.0166667   0.0500000   0.3500000), wk =   0.0035556
        k(   26) = (   0.0166667   0.0500000   0.3833333), wk =   0.0035556
        k(   27) = (   0.0166667   0.0500000   0.4166667), wk =   0.0035556
        k(   28) = (   0.0166667   0.0500000   0.4500000), wk =   0.0035556
        k(   29) = (   0.0166667   0.0500000   0.4833333), wk =   0.0035556
        k(   30) = (   0.0166667   0.0833333   0.0833333), wk =   0.0017778
        k(   31) = (   0.0166667   0.0833333   0.1166667), wk =   0.0035556
        k(   32) = (   0.0166667   0.0833333   0.1500000), wk =   0.0035556
        k(   33) = (   0.0166667   0.0833333   0.1833333), wk =   0.0035556
        k(   34) = (   0.0166667   0.0833333   0.2166667), wk =   0.0035556
        k(   35) = (   0.0166667   0.0833333   0.2500000), wk =   0.0035556
[...]

   -30.3619 -19.9828 -12.3786 -12.3265 -12.3193  -8.7807  -8.7360  -8.6602
    -5.2703  -5.2643  -5.2193   3.6458   3.9014   4.0449   4.0828   4.3302
     4.3875   5.5574   5.5884   5.6632  11.6159  11.6852  11.7146

     occupation numbers 
     1.0000   1.0000   1.0000   1.0000   1.0000   1.0000   1.0000   1.0000
     1.0000   1.0000   1.0000   1.0000   1.0000   1.0000   1.0000   1.0000
     1.0000   0.2697   0.2106   0.1050   0.0000   0.0000   0.0000

          k = 0.3833 0.3833 0.4833 (  2534 PWs)   bands (ev):

   -30.3619 -19.9825 -12.3895 -12.3263 -12.3189  -8.7789  -8.7351  -8.6409
    -5.2733  -5.2650  -5.2268   3.6372   3.8960   4.0404   4.0885   4.3206
     4.3879   5.5611   5.5998   5.6707  11.5998  11.6689  11.7060

     occupation numbers 
     1.0000   1.0000   1.0000   1.0000   1.0000   1.0000   1.0000   1.0000
     1.0000   1.0000   1.0000   1.0000   1.0000   1.0000   1.0000   1.0000
     1.0000   0.2622   0.1911   0.0972   0.0000   0.0000   0.0000

          k = 0.3833 0.4167 0.4167 (  2539 PWs)   bands (ev):

   -30.3619 -19.9826 -12.3579 -12.3540 -12.3221  -8.7654  -8.7022  -8.6891
    -5.2717  -5.2700  -5.2237   3.6391   3.9192   4.0535   4.0617   4.3294
     4.3712   5.5793   5.5897   5.6662  11.6028  11.6736  11.6836

     occupation numbers 
     1.0000   1.0000   1.0000   1.0000   1.0000   1.0000   1.0000   1.0000
     1.0000   1.0000   1.0000   1.0000   1.0000   1.0000   1.0000   1.0000
     1.0000   0.2269   0.2082   0.1018   0.0000   0.0000   0.0000

          k = 0.3833 0.4167 0.4500 (  2531 PWs)   bands (ev):

   -30.3617 -19.9819 -12.3777 -12.3553 -12.3216  -8.7602  -8.6950  -8.6579
    -5.2775  -5.2739  -5.2372   3.6208   3.9195   4.0459   4.0664   4.3092
     4.3691   5.5930   5.6107   5.6805  11.5665  11.6408  11.6596

     occupation numbers 
     1.0000   1.0000   1.0000   1.0000   1.0000   1.0000   1.0000   1.0000
     1.0000   1.0000   1.0000   1.0000   1.0000   1.0000   1.0000   1.0000
     1.0000   0.2026   0.1736   0.0878   0.0000   0.0000   0.0000

          k = 0.3833 0.4167 0.4833 (  2530 PWs)   bands (ev):

   -30.3616 -19.9816 -12.3886 -12.3550 -12.3212  -8.7584  -8.6938  -8.6388
    -5.2806  -5.2748  -5.2449   3.6105   3.9180   4.0412   4.0719   4.2987
     4.3686   5.5976   5.6221   5.6885  11.5468  11.6231  11.6498

     occupation numbers 
     1.0000   1.0000   1.0000   1.0000   1.0000   1.0000   1.0000   1.0000
     1.0000   1.0000   1.0000   1.0000   1.0000   1.0000   1.0000   1.0000
     1.0000   0.1948   0.1566   0.0805   0.0000   0.0000   0.0000

          k = 0.3833 0.4500 0.4500 (  2536 PWs)   bands (ev):

   -30.3615 -19.9813 -12.3777 -12.3763 -12.3210  -8.7551  -8.6602  -8.6541
    -5.2817  -5.2800  -5.2508   3.6007   3.9256   4.0514   4.0571   4.2894
     4.3635   5.6152   5.6225   5.6963  11.5237  11.6175  11.6240

     occupation numbers 
     1.0000   1.0000   1.0000   1.0000   1.0000   1.0000   1.0000   1.0000
     1.0000   1.0000   1.0000   1.0000   1.0000   1.0000   1.0000   1.0000
     1.0000   0.1668   0.1561   0.0739   0.0000   0.0000   0.0000

          k = 0.3833 0.4500 0.4833 (  2531 PWs)   bands (ev):

   -30.3615 -19.9810 -12.3880 -12.3767 -12.3206  -8.7532  -8.6565  -8.6373
    -5.2844  -5.2816  -5.2586   3.5895   3.9268   4.0485   4.0604   4.2792
     4.3622   5.6224   5.6320   5.7061  11.5005  11.6016  11.6117

     occupation numbers 
     1.0000   1.0000   1.0000   1.0000   1.0000   1.0000   1.0000   1.0000
     1.0000   1.0000   1.0000   1.0000   1.0000   1.0000   1.0000   1.0000
     1.0000   0.1561   0.1428   0.0662   0.0000   0.0000   0.0000

          k = 0.3833 0.4833 0.4833 (  2532 PWs)   bands (ev):

   -30.3614 -19.9806 -12.3877 -12.3876 -12.3203  -8.7514  -8.6370  -8.6363
    -5.2854  -5.2850  -5.2666   3.5778   3.9291   4.0541   4.0548   4.2690
     4.3601   5.6349   5.6358   5.7164  11.4755  11.5919  11.5927

     occupation numbers 
     1.0000   1.0000   1.0000   1.0000   1.0000   1.0000   1.0000   1.0000
     1.0000   1.0000   1.0000   1.0000   1.0000   1.0000   1.0000   1.0000
     1.0000   0.1389   0.1377   0.0589   0.0000   0.0000   0.0000

          k = 0.4167 0.4167 0.4167 (  2527 PWs)   bands (ev):

   -30.3616 -19.9817 -12.3585 -12.3529 -12.3529  -8.7200  -8.6864  -8.6864
    -5.2794  -5.2794  -5.2417   3.6150   3.9428   4.0477   4.0477   4.3305
     4.3305   5.6171   5.6171   5.6772  11.5693  11.6191  11.6191

     occupation numbers 
     1.0000   1.0000   1.0000   1.0000   1.0000   1.0000   1.0000   1.0000
     1.0000   1.0000   1.0000   1.0000   1.0000   1.0000   1.0000   1.0000
     1.0000   0.1639   0.1639   0.0908   0.0000   0.0000   0.0000

          k = 0.4167 0.4167 0.4500 (  2531 PWs)   bands (ev):

   -30.3615 -19.9810 -12.3767 -12.3559 -12.3521  -8.7090  -8.6846  -8.6553
    -5.2859  -5.2836  -5.2553   3.5949   3.9516   4.0379   4.0514   4.3048
     4.3310   5.6309   5.6427   5.6892  11.5357  11.5749  11.5924

     occupation numbers 
     1.0000   1.0000   1.0000   1.0000   1.0000   1.0000   1.0000   1.0000
     1.0000   1.0000   1.0000   1.0000   1.0000   1.0000   1.0000   1.0000
     1.0000   0.1442   0.1289   0.0798   0.0000   0.0000   0.0000

          k = 0.4167 0.4167 0.4833 (  2531 PWs)   bands (ev):

   -30.3614 -19.9807 -12.3876 -12.3557 -12.3517  -8.7066  -8.6836  -8.6363
    -5.2892  -5.2848  -5.2631   3.5840   3.9533   4.0333   4.0564   4.2924
     4.3312   5.6363   5.6556   5.6968  11.5159  11.5526  11.5817

     occupation numbers 
     1.0000   1.0000   1.0000   1.0000   1.0000   1.0000   1.0000   1.0000
     1.0000   1.0000   1.0000   1.0000   1.0000   1.0000   1.0000   1.0000
     1.0000   0.1370   0.1135   0.0735   0.0000   0.0000   0.0000

          k = 0.4167 0.4500 0.4500 (  2534 PWs)   bands (ev):

   -30.3613 -19.9804 -12.3767 -12.3751 -12.3531  -8.6966  -8.6569  -8.6513
    -5.2911  -5.2899  -5.2689   3.5742   3.9664   4.0382   4.0429   4.2901
     4.3190   5.6555   5.6604   5.7009  11.4998  11.5426  11.5487

     occupation numbers 
     1.0000   1.0000   1.0000   1.0000   1.0000   1.0000   1.0000   1.0000
     1.0000   1.0000   1.0000   1.0000   1.0000   1.0000   1.0000   1.0000
     1.0000   0.1136   0.1081   0.0702   0.0000   0.0000   0.0000

          k = 0.4167 0.4500 0.4833 (  2536 PWs)   bands (ev):

   -30.3612 -19.9801 -12.3868 -12.3755 -12.3528  -8.6944  -8.6534  -8.6346
    -5.2941  -5.2918  -5.2768   3.5629   3.9703   4.0352   4.0458   4.2792
     4.3170   5.6630   5.6717   5.7094  11.4770  11.5221  11.5353

     occupation numbers 
     1.0000   1.0000   1.0000   1.0000   1.0000   1.0000   1.0000   1.0000
     1.0000   1.0000   1.0000   1.0000   1.0000   1.0000   1.0000   1.0000
     1.0000   0.1053   0.0962   0.0638   0.0000   0.0000   0.0000

          k = 0.4167 0.4833 0.4833 (  2537 PWs)   bands (ev):

   -30.3611 -19.9798 -12.3865 -12.3864 -12.3525  -8.6923  -8.6342  -8.6334
    -5.2956  -5.2952  -5.2848   3.5515   3.9750   4.0402   4.0408   4.2695
     4.3133   5.6761   5.6770   5.7191  11.4521  11.5112  11.5121

     occupation numbers 
     1.0000   1.0000   1.0000   1.0000   1.0000   1.0000   1.0000   1.0000
     1.0000   1.0000   1.0000   1.0000   1.0000   1.0000   1.0000   1.0000
     1.0000   0.0919   0.0910   0.0570   0.0000   0.0000   0.0000

          k = 0.4500 0.4500 0.4500 (  2539 PWs)   bands (ev):

   -30.3611 -19.9798 -12.3765 -12.3743 -12.3743  -8.6618  -8.6493  -8.6493
    -5.2967  -5.2967  -5.2822   3.5534   3.9900   4.0335   4.0335   4.2905
     4.2905   5.6830   5.6830   5.7071  11.4775  11.4972  11.4972

     occupation numbers 
     1.0000   1.0000   1.0000   1.0000   1.0000   1.0000   1.0000   1.0000
     1.0000   1.0000   1.0000   1.0000   1.0000   1.0000   1.0000   1.0000
     1.0000   0.0854   0.0854   0.0655   0.0000   0.0000   0.0000

          k = 0.4500 0.4500 0.4833 (  2538 PWs)   bands (ev):

   -30.3610 -19.9795 -12.3860 -12.3754 -12.3739  -8.6569  -8.6483  -8.6327
    -5.3002  -5.2987  -5.2899   3.5422   3.9975   4.0291   4.0360   4.2769
     4.2906   5.6908   5.6971   5.7141  11.4572  11.4711  11.4831

     occupation numbers 
     1.0000   1.0000   1.0000   1.0000   1.0000   1.0000   1.0000   1.0000
     1.0000   1.0000   1.0000   1.0000   1.0000   1.0000   1.0000   1.0000
     1.0000   0.0785   0.0732   0.0604   0.0000   0.0000   0.0000

          k = 0.4500 0.4833 0.4833 (  2527 PWs)   bands (ev):

   -30.3610 -19.9791 -12.3857 -12.3856 -12.3742  -8.6517  -8.6322  -8.6314
    -5.3026  -5.3022  -5.2974   3.5312   4.0068   4.0309   4.0320   4.2702
     4.2842   5.7052   5.7060   5.7214  11.4359  11.4560  11.4570

     occupation numbers 
     1.0000   1.0000   1.0000   1.0000   1.0000   1.0000   1.0000   1.0000
     1.0000   1.0000   1.0000   1.0000   1.0000   1.0000   1.0000   1.0000
     1.0000   0.0669   0.0663   0.0555   0.0000   0.0000   0.0000

          k = 0.4833 0.4833 0.4833 (  2512 PWs)   bands (ev):

   -30.3609 -19.9788 -12.3854 -12.3851 -12.3851  -8.6318  -8.6304  -8.6304
    -5.3058  -5.3058  -5.3042   3.5202   4.0225   4.0275   4.0275   4.2706
     4.2706   5.7206   5.7206   5.7234  11.4267  11.4290  11.4290

     occupation numbers 
     1.0000   1.0000   1.0000   1.0000   1.0000   1.0000   1.0000   1.0000
     1.0000   1.0000   1.0000   1.0000   1.0000   1.0000   1.0000   1.0000
     1.0000   0.0561   0.0561   0.0543   0.0000   0.0000   0.0000

     the Fermi energy is     5.5004 ev

!    total energy              =    -628.28676717 Ry
     estimated scf accuracy    <          6.5E-09 Ry
     smearing contrib. (-TS)   =      -0.00190821 Ry
     internal energy E=F+TS    =    -628.28485897 Ry

     The total energy is F=E-TS. E is the sum of the following terms:
     one-electron contribution =     -64.48354934 Ry
     hartree contribution      =      52.32505053 Ry
     xc contribution           =     -53.70757162 Ry
     ewald contribution        =    -166.45952522 Ry
     one-center paw contrib.   =    -395.95926333 Ry
      -> PAW hartree energy AE =      28.32950110 Ry
      -> PAW hartree energy PS =     -28.21291227 Ry
      -> PAW xc energy AE      =    -387.73033938 Ry
      -> PAW xc energy PS      =      19.01812477 Ry
      -> total E_H with PAW    =      52.44163936 Ry
      -> total E_XC with PAW   =    -422.41978623 Ry

     convergence has been achieved in  11 iterations

     Forces acting on atoms (cartesian axes, Ry/au):

     atom    1 type  1   force =     0.00000000    0.00000000    0.00000000
     atom    2 type  2   force =     0.00000000    0.00000000    0.00000000
     atom    3 type  3   force =     0.00000000    0.00000000    0.00000000
     atom    4 type  3   force =     0.00000000    0.00000000    0.00000000
     atom    5 type  3   force =     0.00000000    0.00000000    0.00000000
     The non-local contrib.  to forces
     atom    1 type  1   force =     0.00000000    0.00000000    0.00000000
     atom    2 type  2   force =     0.00000000    0.00000000    0.00000000
     atom    3 type  3   force =     0.00000000    0.00000000    0.00000000
     atom    4 type  3   force =     0.00000000    0.00000000    0.00000000
     atom    5 type  3   force =     0.00000000    0.00000000    0.00000000
     The ionic contribution  to forces
     atom    1 type  1   force =    -0.00000000   -0.00000000   -0.00000000
     atom    2 type  2   force =     0.00000000    0.00000000    0.00000000
     atom    3 type  3   force =     0.00000000    0.00000000   -0.00000000
     atom    4 type  3   force =     0.00000000   -0.00000000    0.00000000
     atom    5 type  3   force =    -0.00000000    0.00000000    0.00000000
     The local contribution  to forces
     atom    1 type  1   force =     0.00000000    0.00000000    0.00000000
     atom    2 type  2   force =     0.00000000    0.00000000    0.00000000
     atom    3 type  3   force =     0.00000000    0.00000000   -0.00000000
     atom    4 type  3   force =     0.00000000    0.00000000    0.00000000
     atom    5 type  3   force =     0.00000000    0.00000000    0.00000000
     The core correction contribution to forces
     atom    1 type  1   force =     0.00000000    0.00000000    0.00000000
     atom    2 type  2   force =     0.00000000   -0.00000000   -0.00000000
     atom    3 type  3   force =    -0.00000000    0.00000000    0.00000000
     atom    4 type  3   force =    -0.00000000    0.00000000   -0.00000000
     atom    5 type  3   force =     0.00000000   -0.00000000   -0.00000000
     The Hubbard contrib.    to forces
     atom    1 type  1   force =     0.00000000    0.00000000    0.00000000
     atom    2 type  2   force =     0.00000000    0.00000000    0.00000000
     atom    3 type  3   force =     0.00000000    0.00000000    0.00000000
     atom    4 type  3   force =     0.00000000    0.00000000    0.00000000
     atom    5 type  3   force =     0.00000000    0.00000000    0.00000000
     The SCF correction term to forces
     atom    1 type  1   force =    -0.00000000    0.00000000    0.00000000
     atom    2 type  2   force =    -0.00000000   -0.00000000   -0.00000000
     atom    3 type  3   force =    -0.00000000    0.00000000   -0.00000000
     atom    4 type  3   force =     0.00000000   -0.00000000   -0.00000000
     atom    5 type  3   force =     0.00000000    0.00000000   -0.00000000

     Total force =     0.000000     Total SCF correction =     0.000000


     Computing stress (Cartesian axis) and pressure

          total   stress  (Ry/bohr**3)                   (kbar)     P=      -65.72
  -0.00044677   0.00000000   0.00000000          -65.72        0.00        0.00
   0.00000000  -0.00044677   0.00000000            0.00      -65.72        0.00
   0.00000000   0.00000000  -0.00044677            0.00        0.00      -65.72

     kinetic stress (kbar)  14362.00      0.00      0.00
                                0.00  14362.00      0.00
                                0.00      0.00  14362.00

     local   stress (kbar)  -6185.35      0.00     -0.00
                                0.00  -6185.35     -0.00
                               -0.00     -0.00  -6185.35

     nonloc. stress (kbar)   4519.37      0.00      0.00
                                0.00   4519.37      0.00
                                0.00      0.00   4519.37

     hartree stress (kbar)   4272.90      0.00      0.00
                                0.00   4272.90      0.00
                                0.00      0.00   4272.90

     exc-cor stress (kbar)    451.51     -0.00     -0.00
                               -0.00    451.51     -0.00
                               -0.00     -0.00    451.51

     corecor stress (kbar)  -3892.95      0.00      0.00
                                0.00  -3892.95     -0.00
                                0.00     -0.00  -3892.95

     ewald   stress (kbar) -13593.20     -0.00     -0.00
                               -0.00 -13593.20     -0.00
                               -0.00     -0.00 -13593.20

     hubbard stress (kbar)      0.00      0.00      0.00
                                0.00      0.00      0.00
                                0.00      0.00      0.00

     DFT-D   stress (kbar)      0.00      0.00      0.00
                                0.00      0.00      0.00
                                0.00      0.00      0.00

     XDM     stress (kbar)      0.00      0.00      0.00
                                0.00      0.00      0.00
                                0.00      0.00      0.00

     dft-nl  stress (kbar)      0.00      0.00      0.00
                                0.00      0.00      0.00
                                0.00      0.00      0.00

     TS-vdW  stress (kbar)      0.00      0.00      0.00
                                0.00      0.00      0.00
                                0.00      0.00      0.00

     MDB     stress (kbar)      0.00      0.00      0.00
                                0.00      0.00      0.00
                                0.00      0.00      0.00

     3D-RISM stress (kbar)      0.00      0.00      0.00
                                0.00      0.00      0.00
                                0.00      0.00      0.00


     Writing all to output data dir ./out/BCO.save/ :
     XML data file, charge density, pseudopotentials, collected wavefunctions

     init_run     :      7.16s CPU      7.42s WALL (       1 calls)
     electrons    :    160.12s CPU    167.27s WALL (       1 calls)
     forces       :      1.54s CPU      1.58s WALL (       1 calls)
     stress       :      5.74s CPU      5.76s WALL (       1 calls)

     Called by init_run:
     wfcinit      :      6.07s CPU      6.25s WALL (       1 calls)
     wfcinit:atom :      0.03s CPU      0.03s WALL (     340 calls)
     wfcinit:wfcr :      5.90s CPU      6.08s WALL (     340 calls)
     potinit      :      0.61s CPU      0.66s WALL (       1 calls)
     hinit0       :      0.29s CPU      0.30s WALL (       1 calls)

     Called by electrons:
     c_bands      :    143.37s CPU    149.92s WALL (      11 calls)
     sum_band     :     15.25s CPU     15.71s WALL (      11 calls)
     v_of_rho     :      0.17s CPU      0.18s WALL (      12 calls)
     v_h          :      0.01s CPU      0.01s WALL (      12 calls)
     v_xc         :      0.18s CPU      0.19s WALL (      14 calls)
     newd         :      0.64s CPU      0.65s WALL (      12 calls)
     PAW_pot      :      0.73s CPU      0.76s WALL (      12 calls)
     mix_rho      :      0.05s CPU      0.05s WALL (      11 calls)

     Called by c_bands:
     init_us_2    :      1.21s CPU      1.25s WALL (    8500 calls)
     init_us_2:cp :      1.19s CPU      1.24s WALL (    8500 calls)
     cegterg      :    124.20s CPU    130.12s WALL (    3740 calls)

     Called by sum_band:
     sum_band:wei :      0.08s CPU      0.08s WALL (      11 calls)
     sum_band:loo :     14.21s CPU     14.64s WALL (      11 calls)
     sum_band:buf :      0.10s CPU      0.11s WALL (    3740 calls)
     sum_band:ini :      0.45s CPU      0.47s WALL (    3740 calls)
     sum_band:cal :      3.56s CPU      3.71s WALL (    3740 calls)
     sum_band:bec :      0.13s CPU      0.14s WALL (    3740 calls)
     addusdens    :      0.54s CPU      0.56s WALL (      11 calls)
                                        0.00s GPU  (      11 calls)
     addusd:skk   :      0.00s CPU      0.00s WALL (      33 calls)
                                        0.00s GPU  (      33 calls)

     Called by *egterg:
     cdiaghg      :     14.11s CPU     14.68s WALL (   19446 calls)
     cegterg:over :     11.87s CPU     12.52s WALL (   15706 calls)
     cegterg:upda :      3.96s CPU      4.08s WALL (   15706 calls)
     cegterg:last :      9.58s CPU      9.98s WALL (    8379 calls)
     h_psi        :     71.40s CPU     75.07s WALL (   19786 calls)
     s_psi        :      8.40s CPU      8.66s WALL (   19786 calls)
     g_psi        :      0.32s CPU      0.33s WALL (   15706 calls)

     Called by h_psi:
     h_psi:calbec :     11.06s CPU     11.69s WALL (   19786 calls)
     vloc_psi     :     51.68s CPU     54.36s WALL (   19786 calls)
     add_vuspsi   :      8.41s CPU      8.77s WALL (   19786 calls)

     General routines
     calbec       :     17.01s CPU     17.82s WALL (   25226 calls)
     fft          :      0.27s CPU      0.28s WALL (     179 calls)
     ffts         :      0.20s CPU      0.20s WALL (      23 calls)
     fftw         :     52.06s CPU     54.68s WALL (  569614 calls)
     interpolate  :      0.20s CPU      0.21s WALL (      12 calls)

     Parallel routines

     PAW routines
     PAW_pot      :      0.73s CPU      0.76s WALL (      12 calls)
     PAW_symme    :      0.10s CPU      0.10s WALL (      23 calls)

     PWSCF        :   2m56.29s CPU   3m 4.16s WALL


   This run was terminated on:  19:16:54   8Apr2025            

=------------------------------------------------------------------------------=
   JOB DONE.
=------------------------------------------------------------------------------=
