
     Program PWSCF v.7.3 starts on  7Apr2025 at 18:23: 3 

     This program is part of the open-source Quantum ESPRESSO suite
     for quantum simulation of materials; please cite
         "P. Giannozzi et al., J. Phys.:Condens. Matter 21 395502 (2009);
         "P. Giannozzi et al., J. Phys.:Condens. Matter 29 465901 (2017);
         "P. Giannozzi et al., J. Chem. Phys. 152 154105 (2020);
          URL http://www.quantum-espresso.org", 
     in publications or presentations arising from this work. More details at
     http://www.quantum-espresso.org/quote

     Parallel version (MPI), running on    20 processors

     MPI processes distributed on     1 nodes
     27038 MiB available memory on the printing compute node when the environment starts

     Waiting for input...
     Reading input from standard input

     Current dimensions of program PWSCF are:
     Max number of different atomic species (ntypx) = 10
     Max number of k-points (npk) = 120000
     Max angular momentum in pseudopotentials (lmaxx) =  4
     file Ba.pbesol-spn-kjpaw_psl.1.0.0.UPF: wavefunction(s)  5S 6S renormalized
     file O.pbesol-n-kjpaw_psl.0.1.UPF: wavefunction(s)  2P renormalized
     Message from routine setup:
     using ibrav=0 with symmetry is DISCOURAGED, use correct ibrav instead

     R & G space division:  proc/nbgrp/npool/nimage =      20
     Subspace diagonalization in iterative solution of the eigenvalue problem:
     a serial algorithm will be used


     Parallelization info
     --------------------
     sticks:   dense  smooth     PW     G-vecs:    dense   smooth      PW
     Min         199      79     21                 9407     2369     355
     Max         200      80     23                 9410     2374     360
     Sum        3985    1581    441               188183    47401    7153

     Using Slab Decomposition



     bravais-lattice index     =            0
     lattice parameter (alat)  =       8.4365  a.u.
     unit-cell volume          =     600.4730 (a.u.)^3
     number of atoms/cell      =            5
     number of atomic types    =            3
     number of electrons       =        38.00
     number of Kohn-Sham states=           23
     kinetic-energy cutoff     =      70.0000  Ry
     charge density cutoff     =     700.0000  Ry
     scf convergence threshold =      1.0E-07
     mixing beta               =       0.4000
     number of iterations used =            8  plain     mixing
     Exchange-correlation= SLA  PW   PSX  PSC
                           (   1   4  10   8   0   0   0)

     celldm(1)=   8.436542  celldm(2)=   0.000000  celldm(3)=   0.000000
     celldm(4)=   0.000000  celldm(5)=   0.000000  celldm(6)=   0.000000

     crystal axes: (cart. coord. in units of alat)
               a(1) = (   1.000000   0.000000   0.000000 )  
               a(2) = (   0.000000   1.000000   0.000000 )  
               a(3) = (   0.000000   0.000000   1.000000 )  

     reciprocal axes: (cart. coord. in units 2 pi/alat)
               b(1) = (  1.000000  0.000000  0.000000 )  
               b(2) = (  0.000000  1.000000  0.000000 )  
               b(3) = (  0.000000  0.000000  1.000000 )  


     PseudoPot. # 1 for Ba read from file:
     ./pseudo/Ba.pbesol-spn-kjpaw_psl.1.0.0.UPF
     MD5 check sum: f28c4a63d325c1a0d00fd3a4f19b8d73
     Pseudo is Projector augmented-wave + core cor, Zval = 10.0
     Generated using "atomic" code by A. Dal Corso  v.6.0 svn rev. 13079
     Shape of augmentation charge: PSQ
     Using radial grid of 1251 points,  7 beta functions with: 
                l(1) =   0
                l(2) =   0
                l(3) =   0
                l(4) =   1
                l(5) =   1
                l(6) =   2
                l(7) =   2
     Q(r) pseudized with 0 coefficients 


     PseudoPot. # 2 for Ca read from file:
     ./pseudo/ca_pbesol_v1.uspp.F.UPF
     MD5 check sum: 0533207b58cddeaa036efa5b63902087
     Pseudo is Ultrasoft + core correction, Zval = 10.0
     Generated by new atomic code, or converted to UPF format
     Using radial grid of  845 points,  6 beta functions with: 
                l(1) =   0
                l(2) =   0
                l(3) =   1
                l(4) =   1
                l(5) =   2
                l(6) =   2
     Q(r) pseudized with  8 coefficients,  rinner =    1.500   1.500   1.500
                                                       1.500   1.500

     PseudoPot. # 3 for O  read from file:
     ./pseudo/O.pbesol-n-kjpaw_psl.0.1.UPF
     MD5 check sum: 81d73d1479e654e5638b0319f0d6c2c7
     Pseudo is Projector augmented-wave + core cor, Zval =  6.0
     Generated using "atomic" code by A. Dal Corso  v.6.0 svn rev. 13079
     Shape of augmentation charge: BESSEL
     Using radial grid of 1095 points,  4 beta functions with: 
                l(1) =   0
                l(2) =   0
                l(3) =   1
                l(4) =   1
     Q(r) pseudized with 0 coefficients 


     atomic species   valence    mass     pseudopotential
     Ba               10.00   137.32700     Ba( 1.00)
     Ca               10.00    40.07800     Ca( 1.00)
     O                 6.00    15.99940     O ( 1.00)

     48 Sym. Ops., with inversion, found


                                    s                        frac. trans.

      isym =  1     identity                                     

 cryst.   s( 1) = (     1          0          0      )
                  (     0          1          0      )
                  (     0          0          1      )

 cart.    s( 1) = (  1.0000000  0.0000000  0.0000000 )
                  (  0.0000000  1.0000000  0.0000000 )
                  (  0.0000000  0.0000000  1.0000000 )


      isym =  2     180 deg rotation - cart. axis [0,0,1]        

 cryst.   s( 2) = (    -1          0          0      )
                  (     0         -1          0      )
                  (     0          0          1      )

 cart.    s( 2) = ( -1.0000000  0.0000000  0.0000000 )
                  (  0.0000000 -1.0000000  0.0000000 )
                  (  0.0000000  0.0000000  1.0000000 )


      isym =  3     180 deg rotation - cart. axis [0,1,0]        

 cryst.   s( 3) = (    -1          0          0      )
                  (     0          1          0      )
                  (     0          0         -1      )

 cart.    s( 3) = ( -1.0000000  0.0000000  0.0000000 )
                  (  0.0000000  1.0000000  0.0000000 )
                  (  0.0000000  0.0000000 -1.0000000 )


      isym =  4     180 deg rotation - cart. axis [1,0,0]        

 cryst.   s( 4) = (     1          0          0      )
                  (     0         -1          0      )
                  (     0          0         -1      )

 cart.    s( 4) = (  1.0000000  0.0000000  0.0000000 )
                  (  0.0000000 -1.0000000  0.0000000 )
                  (  0.0000000  0.0000000 -1.0000000 )


      isym =  5     180 deg rotation - cart. axis [1,1,0]        

 cryst.   s( 5) = (     0          1          0      )
                  (     1          0          0      )
                  (     0          0         -1      )

 cart.    s( 5) = (  0.0000000  1.0000000  0.0000000 )
                  (  1.0000000  0.0000000  0.0000000 )
                  (  0.0000000  0.0000000 -1.0000000 )


      isym =  6     180 deg rotation - cart. axis [1,-1,0]       

 cryst.   s( 6) = (     0         -1          0      )
                  (    -1          0          0      )
                  (     0          0         -1      )

 cart.    s( 6) = (  0.0000000 -1.0000000  0.0000000 )
                  ( -1.0000000  0.0000000  0.0000000 )
                  (  0.0000000  0.0000000 -1.0000000 )


      isym =  7      90 deg rotation - cart. axis [0,0,-1]       

 cryst.   s( 7) = (     0         -1          0      )
                  (     1          0          0      )
                  (     0          0          1      )

 cart.    s( 7) = (  0.0000000  1.0000000  0.0000000 )
                  ( -1.0000000  0.0000000  0.0000000 )
                  (  0.0000000  0.0000000  1.0000000 )


      isym =  8      90 deg rotation - cart. axis [0,0,1]        

 cryst.   s( 8) = (     0          1          0      )
                  (    -1          0          0      )
                  (     0          0          1      )

 cart.    s( 8) = (  0.0000000 -1.0000000  0.0000000 )
                  (  1.0000000  0.0000000  0.0000000 )
                  (  0.0000000  0.0000000  1.0000000 )


      isym =  9     180 deg rotation - cart. axis [1,0,1]        

 cryst.   s( 9) = (     0          0          1      )
                  (     0         -1          0      )
                  (     1          0          0      )

 cart.    s( 9) = (  0.0000000  0.0000000  1.0000000 )
                  (  0.0000000 -1.0000000  0.0000000 )
                  (  1.0000000  0.0000000  0.0000000 )


      isym = 10     180 deg rotation - cart. axis [-1,0,1]       

 cryst.   s(10) = (     0          0         -1      )
                  (     0         -1          0      )
                  (    -1          0          0      )

 cart.    s(10) = (  0.0000000  0.0000000 -1.0000000 )
                  (  0.0000000 -1.0000000  0.0000000 )
                  ( -1.0000000  0.0000000  0.0000000 )


      isym = 11      90 deg rotation - cart. axis [0,1,0]        

 cryst.   s(11) = (     0          0         -1      )
                  (     0          1          0      )
                  (     1          0          0      )

 cart.    s(11) = (  0.0000000  0.0000000  1.0000000 )
                  (  0.0000000  1.0000000  0.0000000 )
                  ( -1.0000000  0.0000000  0.0000000 )


      isym = 12      90 deg rotation - cart. axis [0,-1,0]       

 cryst.   s(12) = (     0          0          1      )
                  (     0          1          0      )
                  (    -1          0          0      )

 cart.    s(12) = (  0.0000000  0.0000000 -1.0000000 )
                  (  0.0000000  1.0000000  0.0000000 )
                  (  1.0000000  0.0000000  0.0000000 )


      isym = 13     180 deg rotation - cart. axis [0,1,1]        

 cryst.   s(13) = (    -1          0          0      )
                  (     0          0          1      )
                  (     0          1          0      )

 cart.    s(13) = ( -1.0000000  0.0000000  0.0000000 )
                  (  0.0000000  0.0000000  1.0000000 )
                  (  0.0000000  1.0000000  0.0000000 )


      isym = 14     180 deg rotation - cart. axis [0,1,-1]       

 cryst.   s(14) = (    -1          0          0      )
                  (     0          0         -1      )
                  (     0         -1          0      )

 cart.    s(14) = ( -1.0000000  0.0000000  0.0000000 )
                  (  0.0000000  0.0000000 -1.0000000 )
                  (  0.0000000 -1.0000000  0.0000000 )


      isym = 15      90 deg rotation - cart. axis [-1,0,0]       

 cryst.   s(15) = (     1          0          0      )
                  (     0          0         -1      )
                  (     0          1          0      )

 cart.    s(15) = (  1.0000000  0.0000000  0.0000000 )
                  (  0.0000000  0.0000000  1.0000000 )
                  (  0.0000000 -1.0000000  0.0000000 )


      isym = 16      90 deg rotation - cart. axis [1,0,0]        

 cryst.   s(16) = (     1          0          0      )
                  (     0          0          1      )
                  (     0         -1          0      )

 cart.    s(16) = (  1.0000000  0.0000000  0.0000000 )
                  (  0.0000000  0.0000000 -1.0000000 )
                  (  0.0000000  1.0000000  0.0000000 )


      isym = 17     120 deg rotation - cart. axis [-1,-1,-1]     

 cryst.   s(17) = (     0          0          1      )
                  (     1          0          0      )
                  (     0          1          0      )

 cart.    s(17) = (  0.0000000  1.0000000  0.0000000 )
                  (  0.0000000  0.0000000  1.0000000 )
                  (  1.0000000  0.0000000  0.0000000 )


      isym = 18     120 deg rotation - cart. axis [-1,1,1]       

 cryst.   s(18) = (     0          0         -1      )
                  (    -1          0          0      )
                  (     0          1          0      )

 cart.    s(18) = (  0.0000000 -1.0000000  0.0000000 )
                  (  0.0000000  0.0000000  1.0000000 )
                  ( -1.0000000  0.0000000  0.0000000 )


      isym = 19     120 deg rotation - cart. axis [1,1,-1]       

 cryst.   s(19) = (     0          0         -1      )
                  (     1          0          0      )
                  (     0         -1          0      )

 cart.    s(19) = (  0.0000000  1.0000000  0.0000000 )
                  (  0.0000000  0.0000000 -1.0000000 )
                  ( -1.0000000  0.0000000  0.0000000 )


      isym = 20     120 deg rotation - cart. axis [1,-1,1]       

 cryst.   s(20) = (     0          0          1      )
                  (    -1          0          0      )
                  (     0         -1          0      )

 cart.    s(20) = (  0.0000000 -1.0000000  0.0000000 )
                  (  0.0000000  0.0000000 -1.0000000 )
                  (  1.0000000  0.0000000  0.0000000 )


      isym = 21     120 deg rotation - cart. axis [1,1,1]        

 cryst.   s(21) = (     0          1          0      )
                  (     0          0          1      )
                  (     1          0          0      )

 cart.    s(21) = (  0.0000000  0.0000000  1.0000000 )
                  (  1.0000000  0.0000000  0.0000000 )
                  (  0.0000000  1.0000000  0.0000000 )


      isym = 22     120 deg rotation - cart. axis [-1,1,-1]      

 cryst.   s(22) = (     0         -1          0      )
                  (     0          0         -1      )
                  (     1          0          0      )

 cart.    s(22) = (  0.0000000  0.0000000  1.0000000 )
                  ( -1.0000000  0.0000000  0.0000000 )
                  (  0.0000000 -1.0000000  0.0000000 )


      isym = 23     120 deg rotation - cart. axis [1,-1,-1]      

 cryst.   s(23) = (     0         -1          0      )
                  (     0          0          1      )
                  (    -1          0          0      )

 cart.    s(23) = (  0.0000000  0.0000000 -1.0000000 )
                  ( -1.0000000  0.0000000  0.0000000 )
                  (  0.0000000  1.0000000  0.0000000 )


      isym = 24     120 deg rotation - cart. axis [-1,-1,1]      

 cryst.   s(24) = (     0          1          0      )
                  (     0          0         -1      )
                  (    -1          0          0      )

 cart.    s(24) = (  0.0000000  0.0000000 -1.0000000 )
                  (  1.0000000  0.0000000  0.0000000 )
                  (  0.0000000 -1.0000000  0.0000000 )


      isym = 25     inversion                                    

 cryst.   s(25) = (    -1          0          0      )
                  (     0         -1          0      )
                  (     0          0         -1      )

 cart.    s(25) = ( -1.0000000  0.0000000  0.0000000 )
                  (  0.0000000 -1.0000000  0.0000000 )
                  (  0.0000000  0.0000000 -1.0000000 )


      isym = 26     inv. 180 deg rotation - cart. axis [0,0,1]   

 cryst.   s(26) = (     1          0          0      )
                  (     0          1          0      )
                  (     0          0         -1      )

 cart.    s(26) = (  1.0000000  0.0000000  0.0000000 )
                  (  0.0000000  1.0000000  0.0000000 )
                  (  0.0000000  0.0000000 -1.0000000 )


      isym = 27     inv. 180 deg rotation - cart. axis [0,1,0]   

 cryst.   s(27) = (     1          0          0      )
                  (     0         -1          0      )
                  (     0          0          1      )

 cart.    s(27) = (  1.0000000  0.0000000  0.0000000 )
                  (  0.0000000 -1.0000000  0.0000000 )
                  (  0.0000000  0.0000000  1.0000000 )


      isym = 28     inv. 180 deg rotation - cart. axis [1,0,0]   

 cryst.   s(28) = (    -1          0          0      )
                  (     0          1          0      )
                  (     0          0          1      )

 cart.    s(28) = ( -1.0000000  0.0000000  0.0000000 )
                  (  0.0000000  1.0000000  0.0000000 )
                  (  0.0000000  0.0000000  1.0000000 )


      isym = 29     inv. 180 deg rotation - cart. axis [1,1,0]   

 cryst.   s(29) = (     0         -1          0      )
                  (    -1          0          0      )
                  (     0          0          1      )

 cart.    s(29) = (  0.0000000 -1.0000000  0.0000000 )
                  ( -1.0000000  0.0000000  0.0000000 )
                  (  0.0000000  0.0000000  1.0000000 )


      isym = 30     inv. 180 deg rotation - cart. axis [1,-1,0]  

 cryst.   s(30) = (     0          1          0      )
                  (     1          0          0      )
                  (     0          0          1      )

 cart.    s(30) = (  0.0000000  1.0000000  0.0000000 )
                  (  1.0000000  0.0000000  0.0000000 )
                  (  0.0000000  0.0000000  1.0000000 )


      isym = 31     inv.  90 deg rotation - cart. axis [0,0,-1]  

 cryst.   s(31) = (     0          1          0      )
                  (    -1          0          0      )
                  (     0          0         -1      )

 cart.    s(31) = (  0.0000000 -1.0000000  0.0000000 )
                  (  1.0000000  0.0000000  0.0000000 )
                  (  0.0000000  0.0000000 -1.0000000 )


      isym = 32     inv.  90 deg rotation - cart. axis [0,0,1]   

 cryst.   s(32) = (     0         -1          0      )
                  (     1          0          0      )
                  (     0          0         -1      )

 cart.    s(32) = (  0.0000000  1.0000000  0.0000000 )
                  ( -1.0000000  0.0000000  0.0000000 )
                  (  0.0000000  0.0000000 -1.0000000 )


      isym = 33     inv. 180 deg rotation - cart. axis [1,0,1]   

 cryst.   s(33) = (     0          0         -1      )
                  (     0          1          0      )
                  (    -1          0          0      )

 cart.    s(33) = (  0.0000000  0.0000000 -1.0000000 )
                  (  0.0000000  1.0000000  0.0000000 )
                  ( -1.0000000  0.0000000  0.0000000 )


      isym = 34     inv. 180 deg rotation - cart. axis [-1,0,1]  

 cryst.   s(34) = (     0          0          1      )
                  (     0          1          0      )
                  (     1          0          0      )

 cart.    s(34) = (  0.0000000  0.0000000  1.0000000 )
                  (  0.0000000  1.0000000  0.0000000 )
                  (  1.0000000  0.0000000  0.0000000 )


      isym = 35     inv.  90 deg rotation - cart. axis [0,1,0]   

 cryst.   s(35) = (     0          0          1      )
                  (     0         -1          0      )
                  (    -1          0          0      )

 cart.    s(35) = (  0.0000000  0.0000000 -1.0000000 )
                  (  0.0000000 -1.0000000  0.0000000 )
                  (  1.0000000  0.0000000  0.0000000 )


      isym = 36     inv.  90 deg rotation - cart. axis [0,-1,0]  

 cryst.   s(36) = (     0          0         -1      )
                  (     0         -1          0      )
                  (     1          0          0      )

 cart.    s(36) = (  0.0000000  0.0000000  1.0000000 )
                  (  0.0000000 -1.0000000  0.0000000 )
                  ( -1.0000000  0.0000000  0.0000000 )


      isym = 37     inv. 180 deg rotation - cart. axis [0,1,1]   

 cryst.   s(37) = (     1          0          0      )
                  (     0          0         -1      )
                  (     0         -1          0      )

 cart.    s(37) = (  1.0000000  0.0000000  0.0000000 )
                  (  0.0000000  0.0000000 -1.0000000 )
                  (  0.0000000 -1.0000000  0.0000000 )


      isym = 38     inv. 180 deg rotation - cart. axis [0,1,-1]  

 cryst.   s(38) = (     1          0          0      )
                  (     0          0          1      )
                  (     0          1          0      )

 cart.    s(38) = (  1.0000000  0.0000000  0.0000000 )
                  (  0.0000000  0.0000000  1.0000000 )
                  (  0.0000000  1.0000000  0.0000000 )


      isym = 39     inv.  90 deg rotation - cart. axis [-1,0,0]  

 cryst.   s(39) = (    -1          0          0      )
                  (     0          0          1      )
                  (     0         -1          0      )

 cart.    s(39) = ( -1.0000000  0.0000000  0.0000000 )
                  (  0.0000000  0.0000000 -1.0000000 )
                  (  0.0000000  1.0000000  0.0000000 )


      isym = 40     inv.  90 deg rotation - cart. axis [1,0,0]   

 cryst.   s(40) = (    -1          0          0      )
                  (     0          0         -1      )
                  (     0          1          0      )

 cart.    s(40) = ( -1.0000000  0.0000000  0.0000000 )
                  (  0.0000000  0.0000000  1.0000000 )
                  (  0.0000000 -1.0000000  0.0000000 )


      isym = 41     inv. 120 deg rotation - cart. axis [-1,-1,-1]

 cryst.   s(41) = (     0          0         -1      )
                  (    -1          0          0      )
                  (     0         -1          0      )

 cart.    s(41) = (  0.0000000 -1.0000000  0.0000000 )
                  (  0.0000000  0.0000000 -1.0000000 )
                  ( -1.0000000  0.0000000  0.0000000 )


      isym = 42     inv. 120 deg rotation - cart. axis [-1,1,1]  

 cryst.   s(42) = (     0          0          1      )
                  (     1          0          0      )
                  (     0         -1          0      )

 cart.    s(42) = (  0.0000000  1.0000000  0.0000000 )
                  (  0.0000000  0.0000000 -1.0000000 )
                  (  1.0000000  0.0000000  0.0000000 )


      isym = 43     inv. 120 deg rotation - cart. axis [1,1,-1]  

 cryst.   s(43) = (     0          0          1      )
                  (    -1          0          0      )
                  (     0          1          0      )

 cart.    s(43) = (  0.0000000 -1.0000000  0.0000000 )
                  (  0.0000000  0.0000000  1.0000000 )
                  (  1.0000000  0.0000000  0.0000000 )


      isym = 44     inv. 120 deg rotation - cart. axis [1,-1,1]  

 cryst.   s(44) = (     0          0         -1      )
                  (     1          0          0      )
                  (     0          1          0      )

 cart.    s(44) = (  0.0000000  1.0000000  0.0000000 )
                  (  0.0000000  0.0000000  1.0000000 )
                  ( -1.0000000  0.0000000  0.0000000 )


      isym = 45     inv. 120 deg rotation - cart. axis [1,1,1]   

 cryst.   s(45) = (     0         -1          0      )
                  (     0          0         -1      )
                  (    -1          0          0      )

 cart.    s(45) = (  0.0000000  0.0000000 -1.0000000 )
                  ( -1.0000000  0.0000000  0.0000000 )
                  (  0.0000000 -1.0000000  0.0000000 )


      isym = 46     inv. 120 deg rotation - cart. axis [-1,1,-1] 

 cryst.   s(46) = (     0          1          0      )
                  (     0          0          1      )
                  (    -1          0          0      )

 cart.    s(46) = (  0.0000000  0.0000000 -1.0000000 )
                  (  1.0000000  0.0000000  0.0000000 )
                  (  0.0000000  1.0000000  0.0000000 )


      isym = 47     inv. 120 deg rotation - cart. axis [1,-1,-1] 

 cryst.   s(47) = (     0          1          0      )
                  (     0          0         -1      )
                  (     1          0          0      )

 cart.    s(47) = (  0.0000000  0.0000000  1.0000000 )
                  (  1.0000000  0.0000000  0.0000000 )
                  (  0.0000000 -1.0000000  0.0000000 )


      isym = 48     inv. 120 deg rotation - cart. axis [-1,-1,1] 

 cryst.   s(48) = (     0         -1          0      )
                  (     0          0          1      )
                  (     1          0          0      )

 cart.    s(48) = (  0.0000000  0.0000000  1.0000000 )
                  ( -1.0000000  0.0000000  0.0000000 )
                  (  0.0000000  1.0000000  0.0000000 )


   Cartesian axes

     site n.     atom                  positions (alat units)
         1        Ba     tau(   1) = (   0.0000000   0.0000000   0.0000000  )
         2        Ca     tau(   2) = (   0.5000000   0.5000000   0.5000000  )
         3        O      tau(   3) = (   0.5000000   0.5000000   0.0000000  )
         4        O      tau(   4) = (   0.5000000   0.0000000   0.5000000  )
         5        O      tau(   5) = (   0.0000000   0.5000000   0.5000000  )

   Crystallographic axes

     site n.     atom                  positions (cryst. coord.)
         1        Ba     tau(   1) = (  0.0000000  0.0000000  0.0000000  )
         2        Ca     tau(   2) = (  0.5000000  0.5000000  0.5000000  )
         3        O      tau(   3) = (  0.5000000  0.5000000  0.0000000  )
         4        O      tau(   4) = (  0.5000000  0.0000000  0.5000000  )
         5        O      tau(   5) = (  0.0000000  0.5000000  0.5000000  )

     number of k points=    35  Marzari-Vanderbilt smearing, width (Ry)=  0.0200
                       cart. coord. in units 2pi/alat
        k(    1) = (   0.0500000   0.0500000   0.0500000), wk =   0.0160000
        k(    2) = (   0.0500000   0.0500000   0.1500000), wk =   0.0480000
        k(    3) = (   0.0500000   0.0500000   0.2500000), wk =   0.0480000
        k(    4) = (   0.0500000   0.0500000   0.3500000), wk =   0.0480000
        k(    5) = (   0.0500000   0.0500000   0.4500000), wk =   0.0480000
        k(    6) = (   0.0500000   0.1500000   0.1500000), wk =   0.0480000
        k(    7) = (   0.0500000   0.1500000   0.2500000), wk =   0.0960000
        k(    8) = (   0.0500000   0.1500000   0.3500000), wk =   0.0960000
        k(    9) = (   0.0500000   0.1500000   0.4500000), wk =   0.0960000
        k(   10) = (   0.0500000   0.2500000   0.2500000), wk =   0.0480000
        k(   11) = (   0.0500000   0.2500000   0.3500000), wk =   0.0960000
        k(   12) = (   0.0500000   0.2500000   0.4500000), wk =   0.0960000
        k(   13) = (   0.0500000   0.3500000   0.3500000), wk =   0.0480000
        k(   14) = (   0.0500000   0.3500000   0.4500000), wk =   0.0960000
        k(   15) = (   0.0500000   0.4500000   0.4500000), wk =   0.0480000
        k(   16) = (   0.1500000   0.1500000   0.1500000), wk =   0.0160000
        k(   17) = (   0.1500000   0.1500000   0.2500000), wk =   0.0480000
        k(   18) = (   0.1500000   0.1500000   0.3500000), wk =   0.0480000
        k(   19) = (   0.1500000   0.1500000   0.4500000), wk =   0.0480000
        k(   20) = (   0.1500000   0.2500000   0.2500000), wk =   0.0480000
        k(   21) = (   0.1500000   0.2500000   0.3500000), wk =   0.0960000
        k(   22) = (   0.1500000   0.2500000   0.4500000), wk =   0.0960000
        k(   23) = (   0.1500000   0.3500000   0.3500000), wk =   0.0480000
        k(   24) = (   0.1500000   0.3500000   0.4500000), wk =   0.0960000
        k(   25) = (   0.1500000   0.4500000   0.4500000), wk =   0.0480000
        k(   26) = (   0.2500000   0.2500000   0.2500000), wk =   0.0160000
        k(   27) = (   0.2500000   0.2500000   0.3500000), wk =   0.0480000
        k(   28) = (   0.2500000   0.2500000   0.4500000), wk =   0.0480000
        k(   29) = (   0.2500000   0.3500000   0.3500000), wk =   0.0480000
        k(   30) = (   0.2500000   0.3500000   0.4500000), wk =   0.0960000
        k(   31) = (   0.2500000   0.4500000   0.4500000), wk =   0.0480000
        k(   32) = (   0.3500000   0.3500000   0.3500000), wk =   0.0160000
        k(   33) = (   0.3500000   0.3500000   0.4500000), wk =   0.0480000
        k(   34) = (   0.3500000   0.4500000   0.4500000), wk =   0.0480000
        k(   35) = (   0.4500000   0.4500000   0.4500000), wk =   0.0160000

                       cryst. coord.
        k(    1) = (   0.0500000   0.0500000   0.0500000), wk =   0.0160000
        k(    2) = (   0.0500000   0.0500000   0.1500000), wk =   0.0480000
        k(    3) = (   0.0500000   0.0500000   0.2500000), wk =   0.0480000
        k(    4) = (   0.0500000   0.0500000   0.3500000), wk =   0.0480000
        k(    5) = (   0.0500000   0.0500000   0.4500000), wk =   0.0480000
        k(    6) = (   0.0500000   0.1500000   0.1500000), wk =   0.0480000
        k(    7) = (   0.0500000   0.1500000   0.2500000), wk =   0.0960000
        k(    8) = (   0.0500000   0.1500000   0.3500000), wk =   0.0960000
        k(    9) = (   0.0500000   0.1500000   0.4500000), wk =   0.0960000
        k(   10) = (   0.0500000   0.2500000   0.2500000), wk =   0.0480000
        k(   11) = (   0.0500000   0.2500000   0.3500000), wk =   0.0960000
        k(   12) = (   0.0500000   0.2500000   0.4500000), wk =   0.0960000
        k(   13) = (   0.0500000   0.3500000   0.3500000), wk =   0.0480000
        k(   14) = (   0.0500000   0.3500000   0.4500000), wk =   0.0960000
        k(   15) = (   0.0500000   0.4500000   0.4500000), wk =   0.0480000
        k(   16) = (   0.1500000   0.1500000   0.1500000), wk =   0.0160000
        k(   17) = (   0.1500000   0.1500000   0.2500000), wk =   0.0480000
        k(   18) = (   0.1500000   0.1500000   0.3500000), wk =   0.0480000
        k(   19) = (   0.1500000   0.1500000   0.4500000), wk =   0.0480000
        k(   20) = (   0.1500000   0.2500000   0.2500000), wk =   0.0480000
        k(   21) = (   0.1500000   0.2500000   0.3500000), wk =   0.0960000
        k(   22) = (   0.1500000   0.2500000   0.4500000), wk =   0.0960000
        k(   23) = (   0.1500000   0.3500000   0.3500000), wk =   0.0480000
        k(   24) = (   0.1500000   0.3500000   0.4500000), wk =   0.0960000
        k(   25) = (   0.1500000   0.4500000   0.4500000), wk =   0.0480000
        k(   26) = (   0.2500000   0.2500000   0.2500000), wk =   0.0160000
        k(   27) = (   0.2500000   0.2500000   0.3500000), wk =   0.0480000
        k(   28) = (   0.2500000   0.2500000   0.4500000), wk =   0.0480000
        k(   29) = (   0.2500000   0.3500000   0.3500000), wk =   0.0480000
        k(   30) = (   0.2500000   0.3500000   0.4500000), wk =   0.0960000
        k(   31) = (   0.2500000   0.4500000   0.4500000), wk =   0.0480000
        k(   32) = (   0.3500000   0.3500000   0.3500000), wk =   0.0160000
        k(   33) = (   0.3500000   0.3500000   0.4500000), wk =   0.0480000
        k(   34) = (   0.3500000   0.4500000   0.4500000), wk =   0.0480000
        k(   35) = (   0.4500000   0.4500000   0.4500000), wk =   0.0160000

     Dense  grid:   188183 G-vectors     FFT dimensions: (  72,  72,  72)

     Smooth grid:    47401 G-vectors     FFT dimensions: (  45,  45,  45)

     Dynamical RAM for                 wfc:       0.10 MB

     Dynamical RAM for     wfc (w. buffer):       3.74 MB

     Dynamical RAM for           str. fact:       0.43 MB

     Dynamical RAM for           local pot:       0.00 MB

     Dynamical RAM for          nlocal pot:       0.28 MB

     Dynamical RAM for                qrad:       8.49 MB

     Dynamical RAM for          rho,v,vnew:       0.91 MB

     Dynamical RAM for               rhoin:       0.30 MB

     Dynamical RAM for            rho*nmix:       2.30 MB

     Dynamical RAM for           G-vectors:       0.56 MB

     Dynamical RAM for          h,s,v(r/c):       0.10 MB

     Dynamical RAM for          <psi|beta>:       0.02 MB

     Dynamical RAM for                 psi:       0.21 MB

     Dynamical RAM for                hpsi:       0.21 MB

     Dynamical RAM for                spsi:       0.21 MB

     Dynamical RAM for      wfcinit/wfcrot:       0.26 MB

     Dynamical RAM for           addusdens:      29.86 MB

     Dynamical RAM for          addusforce:      30.52 MB

     Dynamical RAM for         addusstress:      31.59 MB

     Estimated static dynamical RAM per process >      16.06 MB

     Estimated max dynamical RAM per process >      49.95 MB

     Estimated total dynamical RAM >     998.91 MB

     Initial potential from superposition of free atoms

     starting charge      37.9791, renormalised to      38.0000
     Starting wfcs are   27 randomized atomic wfcs
     Checking if some PAW data can be deallocated... 
       PAW data deallocated on   16 nodes for type:  1
       PAW data deallocated on    8 nodes for type:  3

     total cpu time spent up to now is        1.8 secs

     Self-consistent Calculation

     iteration #  1     ecut=    70.00 Ry     beta= 0.40
     Davidson diagonalization with overlap

---- Real-time Memory Report at c_bands before calling an iterative solver
            81 MiB given to the printing process from OS
             0 MiB allocation reported by mallinfo(arena+hblkhd)
         25766 MiB available memory on the node where the printing process lives
------------------
     ethr =  1.00E-02,  avg # of iterations =  3.0

     total cpu time spent up to now is        4.2 secs

     total energy              =    -628.10648558 Ry
     estimated scf accuracy    <       0.66605290 Ry

     iteration #  2     ecut=    70.00 Ry     beta= 0.40
     Davidson diagonalization with overlap

---- Real-time Memory Report at c_bands before calling an iterative solver
            88 MiB given to the printing process from OS
             0 MiB allocation reported by mallinfo(arena+hblkhd)
         25729 MiB available memory on the node where the printing process lives
------------------
     ethr =  1.75E-03,  avg # of iterations =  5.0

     total cpu time spent up to now is        6.1 secs

     total energy              =    -628.28911345 Ry
     estimated scf accuracy    <       0.05614206 Ry

     iteration #  3     ecut=    70.00 Ry     beta= 0.40
     Davidson diagonalization with overlap

---- Real-time Memory Report at c_bands before calling an iterative solver
            88 MiB given to the printing process from OS
             0 MiB allocation reported by mallinfo(arena+hblkhd)
         25729 MiB available memory on the node where the printing process lives
------------------
     ethr =  1.48E-04,  avg # of iterations = 10.5

     total cpu time spent up to now is        9.0 secs

     total energy              =    -628.29583501 Ry
     estimated scf accuracy    <       0.00930678 Ry

     iteration #  4     ecut=    70.00 Ry     beta= 0.40
     Davidson diagonalization with overlap

---- Real-time Memory Report at c_bands before calling an iterative solver
            88 MiB given to the printing process from OS
             0 MiB allocation reported by mallinfo(arena+hblkhd)
         25729 MiB available memory on the node where the printing process lives
------------------
     ethr =  2.45E-05,  avg # of iterations =  5.0

     total cpu time spent up to now is       10.9 secs

     total energy              =    -628.29731587 Ry
     estimated scf accuracy    <       0.00201705 Ry

     iteration #  5     ecut=    70.00 Ry     beta= 0.40
     Davidson diagonalization with overlap

---- Real-time Memory Report at c_bands before calling an iterative solver
            88 MiB given to the printing process from OS
             0 MiB allocation reported by mallinfo(arena+hblkhd)
         25724 MiB available memory on the node where the printing process lives
------------------
     ethr =  5.31E-06,  avg # of iterations =  5.4

     total cpu time spent up to now is       12.9 secs

     total energy              =    -628.29768160 Ry
     estimated scf accuracy    <       0.00014652 Ry

     iteration #  6     ecut=    70.00 Ry     beta= 0.40
     Davidson diagonalization with overlap

---- Real-time Memory Report at c_bands before calling an iterative solver
            88 MiB given to the printing process from OS
             0 MiB allocation reported by mallinfo(arena+hblkhd)
         25726 MiB available memory on the node where the printing process lives
------------------
     ethr =  3.86E-07,  avg # of iterations =  2.1

     total cpu time spent up to now is       14.5 secs

     total energy              =    -628.29770954 Ry
     estimated scf accuracy    <       0.00001621 Ry

     iteration #  7     ecut=    70.00 Ry     beta= 0.40
     Davidson diagonalization with overlap

---- Real-time Memory Report at c_bands before calling an iterative solver
            88 MiB given to the printing process from OS
             0 MiB allocation reported by mallinfo(arena+hblkhd)
         25763 MiB available memory on the node where the printing process lives
------------------
     ethr =  4.26E-08,  avg # of iterations =  4.6

     total cpu time spent up to now is       16.7 secs

     total energy              =    -628.29769813 Ry
     estimated scf accuracy    <       0.00004878 Ry

     iteration #  8     ecut=    70.00 Ry     beta= 0.40
     Davidson diagonalization with overlap

---- Real-time Memory Report at c_bands before calling an iterative solver
            88 MiB given to the printing process from OS
             0 MiB allocation reported by mallinfo(arena+hblkhd)
         25766 MiB available memory on the node where the printing process lives
------------------
     ethr =  4.26E-08,  avg # of iterations =  4.2

     total cpu time spent up to now is       19.0 secs

     total energy              =    -628.29771576 Ry
     estimated scf accuracy    <       0.00001741 Ry

     iteration #  9     ecut=    70.00 Ry     beta= 0.40
     Davidson diagonalization with overlap

---- Real-time Memory Report at c_bands before calling an iterative solver
            88 MiB given to the printing process from OS
             0 MiB allocation reported by mallinfo(arena+hblkhd)
         25797 MiB available memory on the node where the printing process lives
------------------
     ethr =  4.26E-08,  avg # of iterations =  2.0

     total cpu time spent up to now is       20.7 secs

     total energy              =    -628.29771617 Ry
     estimated scf accuracy    <       0.00000410 Ry

     iteration # 10     ecut=    70.00 Ry     beta= 0.40
     Davidson diagonalization with overlap

---- Real-time Memory Report at c_bands before calling an iterative solver
            89 MiB given to the printing process from OS
             0 MiB allocation reported by mallinfo(arena+hblkhd)
         25829 MiB available memory on the node where the printing process lives
------------------
     ethr =  1.08E-08,  avg # of iterations =  2.0

     total cpu time spent up to now is       22.4 secs

     total energy              =    -628.29771597 Ry
     estimated scf accuracy    <       0.00000138 Ry

     iteration # 11     ecut=    70.00 Ry     beta= 0.40
     Davidson diagonalization with overlap

---- Real-time Memory Report at c_bands before calling an iterative solver
            89 MiB given to the printing process from OS
             0 MiB allocation reported by mallinfo(arena+hblkhd)
         25819 MiB available memory on the node where the printing process lives
------------------
     ethr =  3.64E-09,  avg # of iterations =  2.3

     total cpu time spent up to now is       24.0 secs

     End of self-consistent calculation

          k = 0.0500 0.0500 0.0500 (  5941 PWs)   bands (ev):

   -30.3726 -20.0264 -11.7441 -11.7427 -11.7427  -9.8905  -9.5691  -9.5691
    -5.0741  -5.0741  -5.0616   4.4991   4.5675   4.5675   5.0084   5.0084
     5.0788   5.6805   5.7305   5.7305  10.3643  10.3644  10.7063

     occupation numbers 
     1.0000   1.0000   1.0000   1.0000   1.0000   1.0000   1.0000   1.0000
     1.0000   1.0000   1.0000   1.0000   1.0002   1.0002   1.0592   1.0592
     1.0796   0.0871   0.0495   0.0495   0.0000   0.0000   0.0000

          k = 0.0500 0.0500 0.1500 (  5920 PWs)   bands (ev):

   -30.3719 -20.0234 -11.9022 -11.7427 -11.7412  -9.8517  -9.5668  -9.3996
    -5.0755  -5.0690  -5.0447   4.3811   4.5460   4.5626   4.8711   4.9420
     5.0597   5.4133   5.6844   5.7005  10.5745  10.6008  11.0581

     occupation numbers 
     1.0000   1.0000   1.0000   1.0000   1.0000   1.0000   1.0000   1.0000
     1.0000   1.0000   1.0000   1.0000   1.0001   1.0002   1.0188   1.0369
     1.0752   0.6341   0.0836   0.0701   0.0000   0.0000   0.0000

          k = 0.0500 0.0500 0.2500 (  5942 PWs)   bands (ev):

   -30.3707 -20.0184 -12.1113 -11.7412 -11.7388  -9.8578  -9.5631  -9.1008
    -5.0670  -5.0607  -5.0282   4.2295   4.5028   4.5083   4.7118   4.8123
     4.9883   5.0319   5.6361   5.6539  10.9268  10.9792  11.7212

     occupation numbers 
     1.0000   1.0000   1.0000   1.0000   1.0000   1.0000   1.0000   1.0000
     1.0000   1.0000   1.0000   1.0000   1.0000   1.0001   1.0023   1.0095
     1.0522   1.0670   0.1366   0.1147   0.0000   0.0000   0.0000

          k = 0.0500 0.0500 0.3500 (  5922 PWs)   bands (ev):

   -30.3695 -20.0134 -12.2845 -11.7397 -11.7364  -9.8820  -9.5594  -8.8147
    -5.0524  -5.0522  -5.0179   4.0920   4.4194   4.4469   4.5214   4.5819
     4.8753   4.9153   5.5898   5.6101  11.2999  11.3731  12.2701

     occupation numbers 
     1.0000   1.0000   1.0000   1.0000   1.0000   1.0000   1.0000   1.0000
     1.0000   1.0000   1.0000   1.0000   1.0000   1.0000   1.0001   1.0002
     1.0197   1.0292   0.2070   0.1737   0.0000   0.0000   0.0000

          k = 0.0500 0.0500 0.4500 (  5932 PWs)   bands (ev):

   -30.3688 -20.0104 -12.3794 -11.7388 -11.7349  -9.8995  -9.5571  -8.6447
    -5.0473  -5.0387  -5.0159   4.0063   4.2774   4.3848   4.4054   4.5112
     4.8401   4.8739   5.5619   5.5842  11.5446  11.6328  12.5857

     occupation numbers 
     1.0000   1.0000   1.0000   1.0000   1.0000   1.0000   1.0000   1.0000
     1.0000   1.0000   1.0000   1.0000   1.0000   1.0000   1.0000   1.0001
     1.0133   1.0194   0.2594   0.2169   0.0000   0.0000   0.0000

          k = 0.0500 0.1500 0.1500 (  5934 PWs)   bands (ev):

   -30.3711 -20.0203 -11.9041 -11.9001 -11.7407  -9.7865  -9.4483  -9.3674
    -5.0887  -5.0665  -5.0244   4.2355   4.5327   4.5932   4.7142   4.8646
     5.1129   5.2944   5.5419   5.6607  10.7433  10.8425  11.3033

     occupation numbers 
     1.0000   1.0000   1.0000   1.0000   1.0000   1.0000   1.0000   1.0000
     1.0000   1.0000   1.0000   1.0000   1.0001   1.0003   1.0024   1.0175
     1.0833   0.9251   0.3014   0.1071   0.0000   0.0000   0.0000

          k = 0.0500 0.1500 0.2500 (  5934 PWs)   bands (ev):

   -30.3700 -20.0153 -12.1124 -11.9021 -11.7387  -9.7738  -9.4189  -9.1052
    -5.0921  -5.0590  -5.0125   4.0770   4.4847   4.5289   4.5604   4.7494
     4.9900   5.1388   5.4648   5.6074  11.0464  11.2377  11.7863

     occupation numbers 
     1.0000   1.0000   1.0000   1.0000   1.0000   1.0000   1.0000   1.0000
     1.0000   1.0000   1.0000   1.0000   1.0000   1.0001   1.0002   1.0041
     1.0528   1.0813   0.4922   0.1779   0.0000   0.0000   0.0000

          k = 0.0500 0.1500 0.3500 (  5945 PWs)   bands (ev):

   -30.3688 -20.0103 -12.2863 -11.9021 -11.7367  -9.7849  -9.4179  -8.8221
    -5.0831  -5.0509  -5.0137   3.9602   4.2771   4.4226   4.4930   4.5806
     4.8567   5.1425   5.4030   5.5569  11.4037  11.6323  12.3315

     occupation numbers 
     1.0000   1.0000   1.0000   1.0000   1.0000   1.0000   1.0000   1.0000
     1.0000   1.0000   1.0000   1.0000   1.0000   1.0000   1.0000   1.0002
     1.0161   1.0806   0.6623   0.2695   0.0000   0.0000   0.0000

          k = 0.0500 0.1500 0.4500 (  5931 PWs)   bands (ev):

   -30.3681 -20.0073 -12.3816 -11.9022 -11.7354  -9.7953  -9.4177  -8.6527
    -5.0697  -5.0431  -5.0250   3.9318   4.0383   4.3739   4.4537   4.4909
     4.8196   5.1602   5.3526   5.5271  11.6585  11.8910  12.6433

     occupation numbers 
     1.0000   1.0000   1.0000   1.0000   1.0000   1.0000   1.0000   1.0000
     1.0000   1.0000   1.0000   1.0000   1.0000   1.0000   1.0000   1.0000
     1.0104   1.0756   0.7954   0.3347   0.0000   0.0000   0.0000

          k = 0.0500 0.2500 0.2500 (  5930 PWs)   bands (ev):

   -30.3688 -20.0103 -12.1160 -12.1124 -11.7367  -9.7389  -9.1606  -9.0826
    -5.1110  -5.0547  -5.0101   3.8934   4.3185   4.4751   4.5503   4.6750
     4.8854   5.1176   5.3974   5.5430  11.2732  11.6953  11.9812

     occupation numbers 
     1.0000   1.0000   1.0000   1.0000   1.0000   1.0000   1.0000   1.0000
     1.0000   1.0000   1.0000   1.0000   1.0000   1.0000   1.0001   1.0013
     1.0219   1.0833   0.6777   0.2988   0.0000   0.0000   0.0000

          k = 0.0500 0.2500 0.3500 (  5946 PWs)   bands (ev):

   -30.3676 -20.0053 -12.2893 -12.1161 -11.7347  -9.7314  -9.1336  -8.8336
    -5.1140  -5.0576  -5.0160   3.7438   4.1106   4.4112   4.4976   4.5566
     4.8220   5.0916   5.4137   5.4818  11.5799  12.1057  12.2767

     occupation numbers 
     1.0000   1.0000   1.0000   1.0000   1.0000   1.0000   1.0000   1.0000
     1.0000   1.0000   1.0000   1.0000   1.0000   1.0000   1.0000   1.0001
     1.0107   1.0817   0.6327   0.4469   0.0000   0.0000   0.0000

          k = 0.0500 0.2500 0.4500 (  5949 PWs)   bands (ev):

   -30.3669 -20.0022 -12.3851 -12.1173 -11.7334  -9.7305  -9.1369  -8.6657
    -5.1022  -5.0737  -5.0187   3.6715   3.9268   4.3660   4.4686   4.4884
     4.8246   5.0774   5.4186   5.4455  11.8450  12.3249  12.4290

     occupation numbers 
     1.0000   1.0000   1.0000   1.0000   1.0000   1.0000   1.0000   1.0000
     1.0000   1.0000   1.0000   1.0000   1.0000   1.0000   1.0000   1.0000
     1.0111   1.0793   0.6194   0.5449   0.0000   0.0000   0.0000

          k = 0.0500 0.3500 0.3500 (  5965 PWs)   bands (ev):

   -30.3665 -20.0003 -12.2930 -12.2916 -11.7326  -9.7088  -8.8664  -8.8300
    -5.1317  -5.0813  -5.0134   3.5495   3.9591   4.3965   4.4090   4.4854
     4.8230   5.0226   5.4093   5.5255  11.7927  12.1885  12.5774

     occupation numbers 
     1.0000   1.0000   1.0000   1.0000   1.0000   1.0000   1.0000   1.0000
     1.0000   1.0000   1.0000   1.0000   1.0000   1.0000   1.0000   1.0000
     1.0109   1.0640   0.6449   0.3384   0.0000   0.0000   0.0000

          k = 0.0500 0.3500 0.4500 (  5951 PWs)   bands (ev):

   -30.3657 -19.9972 -12.3887 -12.2942 -11.7313  -9.6993  -8.8558  -8.6788
    -5.1304  -5.1096  -5.0097   3.4435   3.8275   4.3426   4.3870   4.4271
     4.8883   4.9851   5.3657   5.5795  11.9756  12.1370  12.7591

     occupation numbers 
     1.0000   1.0000   1.0000   1.0000   1.0000   1.0000   1.0000   1.0000
     1.0000   1.0000   1.0000   1.0000   1.0000   1.0000   1.0000   1.0000
     1.0225   1.0511   0.7621   0.2255   0.0000   0.0000   0.0000

          k = 0.0500 0.4500 0.4500 (  5942 PWs)   bands (ev):

   -30.3650 -19.9941 -12.3910 -12.3909 -11.7301  -9.6847  -8.6895  -8.6850
    -5.1433  -5.1357  -5.0040   3.3217   3.7319   4.2752   4.3645   4.3750
     4.9544   4.9854   5.3161   5.6570  11.8472  12.2533  12.8409

     occupation numbers 
     1.0000   1.0000   1.0000   1.0000   1.0000   1.0000   1.0000   1.0000
     1.0000   1.0000   1.0000   1.0000   1.0000   1.0000   1.0000   1.0000
     1.0408   1.0512   0.8805   0.1112   0.0000   0.0000   0.0000

          k = 0.1500 0.1500 0.1500 (  5941 PWs)   bands (ev):

   -30.3704 -20.0172 -11.9086 -11.8982 -11.8982  -9.6530  -9.3644  -9.3644
    -5.0901  -5.0901  -5.0013   4.0954   4.5632   4.5632   4.7041   4.7041
     5.1691   5.1916   5.5187   5.5187  10.9585  10.9585  11.4867

     occupation numbers 
     1.0000   1.0000   1.0000   1.0000   1.0000   1.0000   1.0000   1.0000
     1.0000   1.0000   1.0000   1.0000   1.0002   1.0002   1.0021   1.0021
     1.0720   1.0593   0.3543   0.3543   0.0000   0.0000   0.0000

          k = 0.1500 0.1500 0.2500 (  5925 PWs)   bands (ev):

   -30.3692 -20.0123 -12.1128 -11.9067 -11.8950  -9.6053  -9.3594  -9.1060
    -5.1002  -5.0924  -4.9918   3.9518   4.4591   4.5042   4.6046   4.6059
     4.9748   5.2161   5.4108   5.4781  11.2119  11.3331  11.8378

     occupation numbers 
     1.0000   1.0000   1.0000   1.0000   1.0000   1.0000   1.0000   1.0000
     1.0000   1.0000   1.0000   1.0000   1.0000   1.0001   1.0004   1.0004
     1.0476   1.0389   0.6409   0.4568   0.0000   0.0000   0.0000

          k = 0.1500 0.1500 0.3500 (  5950 PWs)   bands (ev):

   -30.3681 -20.0073 -12.2872 -11.9087 -11.8919  -9.6105  -9.3545  -8.8264
    -5.0948  -5.0917  -5.0008   3.8640   4.2774   4.3402   4.4114   4.5637
     4.9896   5.2054   5.3204   5.4325  11.5513  11.7141  12.2553

     occupation numbers 
     1.0000   1.0000   1.0000   1.0000   1.0000   1.0000   1.0000   1.0000
     1.0000   1.0000   1.0000   1.0000   1.0000   1.0000   1.0000   1.0002
     1.0527   1.0486   0.8712   0.5808   0.0000   0.0000   0.0000

          k = 0.1500 0.1500 0.4500 (  5943 PWs)   bands (ev):

   -30.3673 -20.0042 -12.3827 -11.9099 -11.8899  -9.6193  -9.3514  -8.6576
    -5.0963  -5.0713  -5.0213   3.8675   4.0009   4.2754   4.3438   4.5394
     5.0700   5.1922   5.2283   5.4020  11.8235  11.9504  12.5275

     occupation numbers 
     1.0000   1.0000   1.0000   1.0000   1.0000   1.0000   1.0000   1.0000
     1.0000   1.0000   1.0000   1.0000   1.0000   1.0000   1.0000   1.0001
     1.0777   1.0588   1.0262   0.6652   0.0000   0.0000   0.0000

          k = 0.1500 0.2500 0.2500 (  5946 PWs)   bands (ev):

   -30.3681 -20.0074 -12.1171 -12.1098 -11.8989  -9.5188  -9.1527  -9.0781
    -5.1230  -5.1038  -4.9906   3.8152   4.3093   4.4441   4.5330   4.6288
     4.8136   5.2503   5.3761   5.4026  11.4325  11.6440  11.9813

     occupation numbers 
     1.0000   1.0000   1.0000   1.0000   1.0000   1.0000   1.0000   1.0000
     1.0000   1.0000   1.0000   1.0000   1.0000   1.0000   1.0001   1.0006
     1.0097   0.9985   0.7349   0.6634   0.0000   0.0000   0.0000

          k = 0.1500 0.2500 0.3500 (  5936 PWs)   bands (ev):

   -30.3669 -20.0024 -12.2887 -12.1142 -11.8971  -9.5055  -9.1225  -8.8328
    -5.1317  -5.1101  -5.0085   3.7252   4.1173   4.3369   4.3756   4.5789
     4.8611   5.2031   5.3431   5.4065  11.7211  11.9916  12.1752

     occupation numbers 
     1.0000   1.0000   1.0000   1.0000   1.0000   1.0000   1.0000   1.0000
     1.0000   1.0000   1.0000   1.0000   1.0000   1.0000   1.0000   1.0002
     1.0169   1.0505   0.8186   0.6528   0.0000   0.0000   0.0000

          k = 0.1500 0.2500 0.4500 (  5945 PWs)   bands (ev):

   -30.3662 -19.9994 -12.3845 -12.1148 -11.8960  -9.5042  -9.1222  -8.6657
    -5.1314  -5.1081  -5.0310   3.7070   3.9093   4.2542   4.3140   4.5622
     4.9581   5.1322   5.3098   5.4166  11.9970  12.2019  12.2826

     occupation numbers 
     1.0000   1.0000   1.0000   1.0000   1.0000   1.0000   1.0000   1.0000
     1.0000   1.0000   1.0000   1.0000   1.0000   1.0000   1.0000   1.0002
     1.0420   1.0823   0.8940   0.6248   0.0000   0.0000   0.0000

          k = 0.1500 0.3500 0.3500 (  5941 PWs)   bands (ev):

   -30.3657 -19.9975 -12.2919 -12.2885 -11.8946  -9.4772  -8.8623  -8.8235
    -5.1543  -5.1291  -5.0290   3.6036   3.9555   4.3185   4.3244   4.4461
     4.8699   5.1801   5.2728   5.5261  11.8750  12.1516  12.2934

     occupation numbers 
     1.0000   1.0000   1.0000   1.0000   1.0000   1.0000   1.0000   1.0000
     1.0000   1.0000   1.0000   1.0000   1.0000   1.0000   1.0000   1.0000
     1.0186   1.0664   0.9639   0.3370   0.0000   0.0000   0.0000

          k = 0.1500 0.3500 0.4500 (  5944 PWs)   bands (ev):

   -30.3650 -19.9945 -12.3864 -12.2912 -11.8930  -9.4673  -8.8477  -8.6740
    -5.1594  -5.1442  -5.0468   3.5422   3.8148   4.2671   4.2840   4.3994
     4.9564   5.1403   5.2325   5.5832  11.9401  12.2271  12.4767

     occupation numbers 
     1.0000   1.0000   1.0000   1.0000   1.0000   1.0000   1.0000   1.0000
     1.0000   1.0000   1.0000   1.0000   1.0000   1.0000   1.0000   1.0000
     1.0415   1.0810   1.0213   0.2187   0.0000   0.0000   0.0000

          k = 0.1500 0.4500 0.4500 (  5942 PWs)   bands (ev):

   -30.3643 -19.9914 -12.3879 -12.3874 -11.8911  -9.4526  -8.6820  -8.6771
    -5.1727  -5.1676  -5.0587   3.4517   3.7244   4.2612   4.2648   4.2881
     5.0324   5.1539   5.1709   5.6645  11.7773  12.4073  12.5395

     occupation numbers 
     1.0000   1.0000   1.0000   1.0000   1.0000   1.0000   1.0000   1.0000
     1.0000   1.0000   1.0000   1.0000   1.0000   1.0000   1.0000   1.0000
     1.0672   1.0777   1.0711   0.1030   0.0000   0.0000   0.0000

          k = 0.2500 0.2500 0.2500 (  5950 PWs)   bands (ev):

   -30.3669 -20.0025 -12.1244 -12.1057 -12.1057  -9.2788  -9.0706  -9.0706
    -5.1425  -5.1425  -4.9996   3.7299   4.2948   4.2948   4.5168   4.6236
     4.6236   5.3267   5.3267   5.3805  11.7049  11.7049  12.0015

     occupation numbers 
     1.0000   1.0000   1.0000   1.0000   1.0000   1.0000   1.0000   1.0000
     1.0000   1.0000   1.0000   1.0000   1.0000   1.0000   1.0001   1.0005
     1.0005   0.8570   0.8570   0.7233   0.0000   0.0000   0.0000

          k = 0.2500 0.2500 0.3500 (  5931 PWs)   bands (ev):

   -30.3658 -19.9977 -12.2878 -12.1195 -12.1015  -9.2288  -9.0630  -8.8310
    -5.1621  -5.1580  -5.0309   3.6889   4.1374   4.1831   4.3100   4.6265
     4.6558   5.2965   5.3242   5.4376  11.9154  11.9512  12.0519

     occupation numbers 
     1.0000   1.0000   1.0000   1.0000   1.0000   1.0000   1.0000   1.0000
     1.0000   1.0000   1.0000   1.0000   1.0000   1.0000   1.0000   1.0006
     1.0009   0.9210   0.8626   0.5667   0.0000   0.0000   0.0000

          k = 0.2500 0.2500 0.4500 (  5929 PWs)   bands (ev):

   -30.3650 -19.9947 -12.3837 -12.1207 -12.0989  -9.2249  -9.0583  -8.6659
    -5.1743  -5.1528  -5.0646   3.7159   3.8825   4.1263   4.2612   4.6293
     4.7026   5.2749   5.3229   5.4587  12.0668  12.0984  12.2250

     occupation numbers 
     1.0000   1.0000   1.0000   1.0000   1.0000   1.0000   1.0000   1.0000
     1.0000   1.0000   1.0000   1.0000   1.0000   1.0000   1.0000   1.0006
     1.0020   0.9604   0.8656   0.5087   0.0000   0.0000   0.0000

          k = 0.2500 0.3500 0.3500 (  5920 PWs)   bands (ev):

   -30.3646 -19.9930 -12.2901 -12.2834 -12.1069  -9.1512  -8.8532  -8.8129
    -5.1910  -5.1869  -5.0723   3.6633   3.9834   4.1977   4.2079   4.4465
     4.6727   5.3160   5.3495   5.5361  11.8969  12.0364  12.0522

     occupation numbers 
     1.0000   1.0000   1.0000   1.0000   1.0000   1.0000   1.0000   1.0000
     1.0000   1.0000   1.0000   1.0000   1.0000   1.0000   1.0000   1.0000
     1.0012   0.8807   0.8029   0.3141   0.0000   0.0000   0.0000

          k = 0.2500 0.3500 0.4500 (  5929 PWs)   bands (ev):

   -30.3639 -19.9901 -12.3828 -12.2862 -12.1050  -9.1391  -8.8331  -8.6662
    -5.2072  -5.1942  -5.1095   3.6800   3.8021   4.1289   4.2059   4.4011
     4.6972   5.3211   5.3645   5.5934  11.8425  12.0698  12.1543

     occupation numbers 
     1.0000   1.0000   1.0000   1.0000   1.0000   1.0000   1.0000   1.0000
     1.0000   1.0000   1.0000   1.0000   1.0000   1.0000   1.0000   1.0000
     1.0019   0.8695   0.7651   0.2007   0.0000   0.0000   0.0000

          k = 0.2500 0.4500 0.4500 (  5944 PWs)   bands (ev):

   -30.3632 -19.9872 -12.3827 -12.3819 -12.1025  -9.1224  -8.6697  -8.6642
    -5.2202  -5.2190  -5.1447   3.6551   3.7036   4.1555   4.1573   4.2840
     4.7142   5.3639   5.3747   5.6770  11.6648  12.1070  12.1081

     occupation numbers 
     1.0000   1.0000   1.0000   1.0000   1.0000   1.0000   1.0000   1.0000
     1.0000   1.0000   1.0000   1.0000   1.0000   1.0000   1.0000   1.0000
     1.0024   0.7668   0.7385   0.0905   0.0000   0.0000   0.0000

          k = 0.3500 0.3500 0.3500 (  5926 PWs)   bands (ev):

   -30.3634 -19.9884 -12.2922 -12.2783 -12.2783  -8.8994  -8.8020  -8.8020
    -5.2278  -5.2278  -5.1304   3.6899   3.9852   4.1042   4.1042   4.4514
     4.4514   5.4460   5.4460   5.5782  11.8102  11.8943  11.8944

     occupation numbers 
     1.0000   1.0000   1.0000   1.0000   1.0000   1.0000   1.0000   1.0000
     1.0000   1.0000   1.0000   1.0000   1.0000   1.0000   1.0000   1.0000
     1.0000   0.5435   0.5435   0.2279   0.0000   0.0000   0.0000

          k = 0.3500 0.3500 0.4500 (  5932 PWs)   bands (ev):

   -30.3627 -19.9856 -12.3792 -12.2863 -12.2752  -8.8657  -8.7953  -8.6584
    -5.2506  -5.2404  -5.1781   3.6937   3.8559   4.0566   4.1277   4.3740
     4.4549   5.4707   5.5249   5.6266  11.7175  11.8224  11.8414

     occupation numbers 
     1.0000   1.0000   1.0000   1.0000   1.0000   1.0000   1.0000   1.0000
     1.0000   1.0000   1.0000   1.0000   1.0000   1.0000   1.0000   1.0000
     1.0000   0.4765   0.3398   0.1493   0.0000   0.0000   0.0000

          k = 0.3500 0.4500 0.4500 (  5938 PWs)   bands (ev):

   -30.3620 -19.9829 -12.3775 -12.3763 -12.2775  -8.8237  -8.6570  -8.6509
    -5.2692  -5.2676  -5.2287   3.6297   3.8725   4.0713   4.0761   4.2871
     4.4252   5.5623   5.5711   5.6903  11.5543  11.7164  11.7220

     occupation numbers 
     1.0000   1.0000   1.0000   1.0000   1.0000   1.0000   1.0000   1.0000
     1.0000   1.0000   1.0000   1.0000   1.0000   1.0000   1.0000   1.0000
     1.0000   0.2586   0.2414   0.0783   0.0000   0.0000   0.0000

          k = 0.4500 0.4500 0.4500 (  5929 PWs)   bands (ev):

   -30.3613 -19.9802 -12.3749 -12.3728 -12.3728  -8.6552  -8.6426  -8.6426
    -5.2969  -5.2969  -5.2824   3.5551   3.9911   4.0342   4.0342   4.2892
     4.2892   5.6811   5.6811   5.7051  11.4790  11.4985  11.4986

     occupation numbers 
     1.0000   1.0000   1.0000   1.0000   1.0000   1.0000   1.0000   1.0000
     1.0000   1.0000   1.0000   1.0000   1.0000   1.0000   1.0000   1.0000
     1.0000   0.0866   0.0866   0.0665   0.0000   0.0000   0.0000

     the Fermi energy is     5.4998 ev

!    total energy              =    -628.29771618 Ry
     estimated scf accuracy    <       0.00000006 Ry
     smearing contrib. (-TS)   =      -0.00194580 Ry
     internal energy E=F+TS    =    -628.29577038 Ry

     The total energy is F=E-TS. E is the sum of the following terms:
     one-electron contribution =     -64.50159695 Ry
     hartree contribution      =      52.33106515 Ry
     xc contribution           =     -53.70823313 Ry
     ewald contribution        =    -166.45952522 Ry
     one-center paw contrib.   =    -395.95748024 Ry
      -> PAW hartree energy AE =      28.31057275 Ry
      -> PAW hartree energy PS =     -28.19355574 Ry
      -> PAW xc energy AE      =    -387.72820572 Ry
      -> PAW xc energy PS      =      19.01525315 Ry
      -> total E_H with PAW    =      52.44808216 Ry
      -> total E_XC with PAW   =    -422.42118570 Ry

     convergence has been achieved in  11 iterations

     Forces acting on atoms (cartesian axes, Ry/au):

     atom    1 type  1   force =     0.00000000    0.00000000    0.00000000
     atom    2 type  2   force =     0.00000000    0.00000000    0.00000000
     atom    3 type  3   force =     0.00000000    0.00000000    0.00000000
     atom    4 type  3   force =     0.00000000    0.00000000    0.00000000
     atom    5 type  3   force =     0.00000000    0.00000000    0.00000000
     The non-local contrib.  to forces
     atom    1 type  1   force =     0.00000000    0.00000000    0.00000000
     atom    2 type  2   force =     0.00000000    0.00000000    0.00000000
     atom    3 type  3   force =     0.00000000    0.00000000    0.00000000
     atom    4 type  3   force =     0.00000000    0.00000000    0.00000000
     atom    5 type  3   force =     0.00000000    0.00000000    0.00000000
     The ionic contribution  to forces
     atom    1 type  1   force =    -0.00000000   -0.00000000   -0.00000000
     atom    2 type  2   force =     0.00000000    0.00000000    0.00000000
     atom    3 type  3   force =     0.00000000    0.00000000   -0.00000000
     atom    4 type  3   force =     0.00000000   -0.00000000    0.00000000
     atom    5 type  3   force =    -0.00000000    0.00000000    0.00000000
     The local contribution  to forces
     atom    1 type  1   force =     0.00000000    0.00000000   -0.00000000
     atom    2 type  2   force =     0.00000000    0.00000000    0.00000000
     atom    3 type  3   force =     0.00000000    0.00000000   -0.00000000
     atom    4 type  3   force =     0.00000000    0.00000000    0.00000000
     atom    5 type  3   force =     0.00000000    0.00000000    0.00000000
     The core correction contribution to forces
     atom    1 type  1   force =     0.00000000    0.00000000   -0.00000000
     atom    2 type  2   force =    -0.00000000   -0.00000000   -0.00000000
     atom    3 type  3   force =     0.00000000   -0.00000000    0.00000000
     atom    4 type  3   force =     0.00000000   -0.00000000    0.00000000
     atom    5 type  3   force =     0.00000000    0.00000000    0.00000000
     The Hubbard contrib.    to forces
     atom    1 type  1   force =     0.00000000    0.00000000    0.00000000
     atom    2 type  2   force =     0.00000000    0.00000000    0.00000000
     atom    3 type  3   force =     0.00000000    0.00000000    0.00000000
     atom    4 type  3   force =     0.00000000    0.00000000    0.00000000
     atom    5 type  3   force =     0.00000000    0.00000000    0.00000000
     The SCF correction term to forces
     atom    1 type  1   force =    -0.00000000   -0.00000000   -0.00000000
     atom    2 type  2   force =     0.00000000    0.00000000   -0.00000000
     atom    3 type  3   force =    -0.00000000   -0.00000000   -0.00000000
     atom    4 type  3   force =    -0.00000000   -0.00000000   -0.00000000
     atom    5 type  3   force =    -0.00000000    0.00000000   -0.00000000

     Total force =     0.000000     Total SCF correction =     0.000000


     Computing stress (Cartesian axis) and pressure

          total   stress  (Ry/bohr**3)                   (kbar)     P=      -47.45
  -0.00032258   0.00000000   0.00000000          -47.45        0.00        0.00
   0.00000000  -0.00032258   0.00000000            0.00      -47.45        0.00
   0.00000000   0.00000000  -0.00032258            0.00        0.00      -47.45

     kinetic stress (kbar)  14350.61      0.00      0.00
                                0.00  14350.61      0.00
                                0.00      0.00  14350.61

     local   stress (kbar)  -6183.97      0.00     -0.00
                                0.00  -6183.97     -0.00
                               -0.00     -0.00  -6183.97

     nonloc. stress (kbar)   4547.46      0.00      0.00
                                0.00   4547.46      0.00
                                0.00      0.00   4547.46

     hartree stress (kbar)   4273.39      0.00      0.00
                                0.00   4273.39     -0.00
                                0.00     -0.00   4273.39

     exc-cor stress (kbar)    451.45     -0.00     -0.00
                               -0.00    451.45      0.00
                               -0.00      0.00    451.45

     corecor stress (kbar)  -3893.20     -0.00      0.00
                               -0.00  -3893.20     -0.00
                                0.00     -0.00  -3893.20

     ewald   stress (kbar) -13593.20      0.00     -0.00
                                0.00 -13593.20     -0.00
                               -0.00     -0.00 -13593.20

     hubbard stress (kbar)      0.00      0.00      0.00
                                0.00      0.00      0.00
                                0.00      0.00      0.00

     DFT-D   stress (kbar)      0.00      0.00      0.00
                                0.00      0.00      0.00
                                0.00      0.00      0.00

     XDM     stress (kbar)      0.00      0.00      0.00
                                0.00      0.00      0.00
                                0.00      0.00      0.00

     dft-nl  stress (kbar)      0.00      0.00      0.00
                                0.00      0.00      0.00
                                0.00      0.00      0.00

     TS-vdW  stress (kbar)      0.00      0.00      0.00
                                0.00      0.00      0.00
                                0.00      0.00      0.00

     MDB     stress (kbar)      0.00      0.00      0.00
                                0.00      0.00      0.00
                                0.00      0.00      0.00

     3D-RISM stress (kbar)      0.00      0.00      0.00
                                0.00      0.00      0.00
                                0.00      0.00      0.00


     Writing all to output data dir ./out/BCO.save/ :
     XML data file, charge density, pseudopotentials, collected wavefunctions

     init_run     :      1.33s CPU      1.38s WALL (       1 calls)
     electrons    :     21.68s CPU     22.27s WALL (       1 calls)
     forces       :      0.49s CPU      0.51s WALL (       1 calls)
     stress       :      1.44s CPU      1.51s WALL (       1 calls)

     Called by init_run:
     wfcinit      :      0.51s CPU      0.51s WALL (       1 calls)
     wfcinit:atom :      0.00s CPU      0.00s WALL (      35 calls)
     wfcinit:wfcr :      0.49s CPU      0.49s WALL (      35 calls)
     potinit      :      0.16s CPU      0.17s WALL (       1 calls)
     hinit0       :      0.45s CPU      0.46s WALL (       1 calls)

     Called by electrons:
     c_bands      :     15.79s CPU     16.27s WALL (      11 calls)
     sum_band     :      3.71s CPU      3.77s WALL (      11 calls)
     v_of_rho     :      0.19s CPU      0.20s WALL (      12 calls)
     v_h          :      0.02s CPU      0.02s WALL (      12 calls)
     v_xc         :      0.37s CPU      0.37s WALL (      14 calls)
     newd         :      1.32s CPU      1.35s WALL (      12 calls)
     PAW_pot      :      0.71s CPU      0.72s WALL (      12 calls)
     mix_rho      :      0.07s CPU      0.07s WALL (      11 calls)

     Called by c_bands:
     init_us_2    :      0.17s CPU      0.17s WALL (     875 calls)
     init_us_2:cp :      0.17s CPU      0.17s WALL (     875 calls)
     cegterg      :     15.40s CPU     15.86s WALL (     385 calls)

     Called by sum_band:
     sum_band:wei :      0.01s CPU      0.01s WALL (      11 calls)
     sum_band:loo :      2.28s CPU      2.33s WALL (      11 calls)
     sum_band:buf :      0.03s CPU      0.03s WALL (     385 calls)
     sum_band:ini :      0.07s CPU      0.07s WALL (     385 calls)
     sum_band:cal :      0.49s CPU      0.50s WALL (     385 calls)
     sum_band:bec :      0.01s CPU      0.01s WALL (     385 calls)
     addusdens    :      1.35s CPU      1.36s WALL (      11 calls)
                                        0.00s GPU  (      11 calls)
     addusd:skk   :      0.01s CPU      0.01s WALL (      33 calls)
                                        0.00s GPU  (      33 calls)

     Called by *egterg:
     cdiaghg      :      1.30s CPU      1.33s WALL (    1995 calls)
     cegterg:over :      1.38s CPU      1.42s WALL (    1610 calls)
     cegterg:upda :      0.42s CPU      0.42s WALL (    1610 calls)
     cegterg:last :      0.99s CPU      0.99s WALL (     880 calls)
     h_psi        :      9.76s CPU     10.14s WALL (    2030 calls)
     s_psi        :      0.83s CPU      0.84s WALL (    2030 calls)
     g_psi        :      0.05s CPU      0.05s WALL (    1610 calls)

     Called by h_psi:
     h_psi:calbec :      1.28s CPU      1.32s WALL (    2030 calls)
     vloc_psi     :      7.60s CPU      7.95s WALL (    2030 calls)
     add_vuspsi   :      0.83s CPU      0.83s WALL (    2030 calls)

     General routines
     calbec       :      2.03s CPU      2.12s WALL (    2590 calls)
     fft          :      0.62s CPU      0.63s WALL (     179 calls)
     ffts         :      0.08s CPU      0.08s WALL (      23 calls)
     fftw         :      7.63s CPU      7.98s WALL (   58329 calls)
     interpolate  :      0.09s CPU      0.09s WALL (      12 calls)

     Parallel routines

     PAW routines
     PAW_pot      :      0.71s CPU      0.72s WALL (      12 calls)
     PAW_symme    :      0.01s CPU      0.01s WALL (      23 calls)

     PWSCF        :     25.39s CPU     26.28s WALL


   This run was terminated on:  18:23:29   7Apr2025            

=------------------------------------------------------------------------------=
   JOB DONE.
=------------------------------------------------------------------------------=
