
     Program PWSCF v.7.3 starts on  7Apr2025 at 18:38:59 

     This program is part of the open-source Quantum ESPRESSO suite
     for quantum simulation of materials; please cite
         "P. Giannozzi et al., J. Phys.:Condens. Matter 21 395502 (2009);
         "P. Giannozzi et al., J. Phys.:Condens. Matter 29 465901 (2017);
         "P. Giannozzi et al., J. Chem. Phys. 152 154105 (2020);
          URL http://www.quantum-espresso.org", 
     in publications or presentations arising from this work. More details at
     http://www.quantum-espresso.org/quote

     Parallel version (MPI), running on    20 processors

     MPI processes distributed on     1 nodes
     26666 MiB available memory on the printing compute node when the environment starts

     Waiting for input...
     Reading input from standard input

     Current dimensions of program PWSCF are:
     Max number of different atomic species (ntypx) = 10
     Max number of k-points (npk) = 120000
     Max angular momentum in pseudopotentials (lmaxx) =  4
     file Ba.pbesol-spn-kjpaw_psl.1.0.0.UPF: wavefunction(s)  5S 6S renormalized
     file O.pbesol-n-kjpaw_psl.0.1.UPF: wavefunction(s)  2P renormalized
     Message from routine setup:
     using ibrav=0 with symmetry is DISCOURAGED, use correct ibrav instead

     K-points division:     npool     =       4
     R & G space division:  proc/nbgrp/npool/nimage =       5
     Subspace diagonalization in iterative solution of the eigenvalue problem:
     a serial algorithm will be used


     Parallelization info
     --------------------
     sticks:   dense  smooth     PW     G-vecs:    dense   smooth      PW
     Min         113      44     15                 2026      510     103
     Max         114      46     19                 2027      513     103
     Sum         569     225     81                10131     2553     515

     Using Slab Decomposition



     bravais-lattice index     =            0
     lattice parameter (alat)  =       8.4365  a.u.
     unit-cell volume          =     600.4730 (a.u.)^3
     number of atoms/cell      =            5
     number of atomic types    =            3
     number of electrons       =        38.00
     number of Kohn-Sham states=           23
     kinetic-energy cutoff     =      10.0000  Ry
     charge density cutoff     =     100.0000  Ry
     scf convergence threshold =      1.0E-07
     mixing beta               =       0.4000
     number of iterations used =            8  plain     mixing
     Exchange-correlation= SLA  PW   PSX  PSC
                           (   1   4  10   8   0   0   0)

     celldm(1)=   8.436542  celldm(2)=   0.000000  celldm(3)=   0.000000
     celldm(4)=   0.000000  celldm(5)=   0.000000  celldm(6)=   0.000000

     crystal axes: (cart. coord. in units of alat)
               a(1) = (   1.000000   0.000000   0.000000 )  
               a(2) = (   0.000000   1.000000   0.000000 )  
               a(3) = (   0.000000   0.000000   1.000000 )  

     reciprocal axes: (cart. coord. in units 2 pi/alat)
               b(1) = (  1.000000  0.000000  0.000000 )  
               b(2) = (  0.000000  1.000000  0.000000 )  
               b(3) = (  0.000000  0.000000  1.000000 )  


     PseudoPot. # 1 for Ba read from file:
     ./pseudo/Ba.pbesol-spn-kjpaw_psl.1.0.0.UPF
     MD5 check sum: f28c4a63d325c1a0d00fd3a4f19b8d73
     Pseudo is Projector augmented-wave + core cor, Zval = 10.0
     Generated using "atomic" code by A. Dal Corso  v.6.0 svn rev. 13079
     Shape of augmentation charge: PSQ
     Using radial grid of 1251 points,  7 beta functions with: 
                l(1) =   0
                l(2) =   0
                l(3) =   0
                l(4) =   1
                l(5) =   1
                l(6) =   2
                l(7) =   2
     Q(r) pseudized with 0 coefficients 


     PseudoPot. # 2 for Ca read from file:
     ./pseudo/ca_pbesol_v1.uspp.F.UPF
     MD5 check sum: 0533207b58cddeaa036efa5b63902087
     Pseudo is Ultrasoft + core correction, Zval = 10.0
     Generated by new atomic code, or converted to UPF format
     Using radial grid of  845 points,  6 beta functions with: 
                l(1) =   0
                l(2) =   0
                l(3) =   1
                l(4) =   1
                l(5) =   2
                l(6) =   2
     Q(r) pseudized with  8 coefficients,  rinner =    1.500   1.500   1.500
                                                       1.500   1.500

     PseudoPot. # 3 for O  read from file:
     ./pseudo/O.pbesol-n-kjpaw_psl.0.1.UPF
     MD5 check sum: 81d73d1479e654e5638b0319f0d6c2c7
     Pseudo is Projector augmented-wave + core cor, Zval =  6.0
     Generated using "atomic" code by A. Dal Corso  v.6.0 svn rev. 13079
     Shape of augmentation charge: BESSEL
     Using radial grid of 1095 points,  4 beta functions with: 
                l(1) =   0
                l(2) =   0
                l(3) =   1
                l(4) =   1
     Q(r) pseudized with 0 coefficients 


     atomic species   valence    mass     pseudopotential
     Ba               10.00   137.32700     Ba( 1.00)
     Ca               10.00    40.07800     Ca( 1.00)
     O                 6.00    15.99940     O ( 1.00)

     48 Sym. Ops., with inversion, found


                                    s                        frac. trans.

      isym =  1     identity                                     

 cryst.   s( 1) = (     1          0          0      )
                  (     0          1          0      )
                  (     0          0          1      )

 cart.    s( 1) = (  1.0000000  0.0000000  0.0000000 )
                  (  0.0000000  1.0000000  0.0000000 )
                  (  0.0000000  0.0000000  1.0000000 )


      isym =  2     180 deg rotation - cart. axis [0,0,1]        

 cryst.   s( 2) = (    -1          0          0      )
                  (     0         -1          0      )
                  (     0          0          1      )

 cart.    s( 2) = ( -1.0000000  0.0000000  0.0000000 )
                  (  0.0000000 -1.0000000  0.0000000 )
                  (  0.0000000  0.0000000  1.0000000 )


      isym =  3     180 deg rotation - cart. axis [0,1,0]        

 cryst.   s( 3) = (    -1          0          0      )
                  (     0          1          0      )
                  (     0          0         -1      )

 cart.    s( 3) = ( -1.0000000  0.0000000  0.0000000 )
                  (  0.0000000  1.0000000  0.0000000 )
                  (  0.0000000  0.0000000 -1.0000000 )


      isym =  4     180 deg rotation - cart. axis [1,0,0]        

 cryst.   s( 4) = (     1          0          0      )
                  (     0         -1          0      )
                  (     0          0         -1      )

 cart.    s( 4) = (  1.0000000  0.0000000  0.0000000 )
                  (  0.0000000 -1.0000000  0.0000000 )
                  (  0.0000000  0.0000000 -1.0000000 )


      isym =  5     180 deg rotation - cart. axis [1,1,0]        

 cryst.   s( 5) = (     0          1          0      )
                  (     1          0          0      )
                  (     0          0         -1      )

 cart.    s( 5) = (  0.0000000  1.0000000  0.0000000 )
                  (  1.0000000  0.0000000  0.0000000 )
                  (  0.0000000  0.0000000 -1.0000000 )


      isym =  6     180 deg rotation - cart. axis [1,-1,0]       

 cryst.   s( 6) = (     0         -1          0      )
                  (    -1          0          0      )
                  (     0          0         -1      )

 cart.    s( 6) = (  0.0000000 -1.0000000  0.0000000 )
                  ( -1.0000000  0.0000000  0.0000000 )
                  (  0.0000000  0.0000000 -1.0000000 )


      isym =  7      90 deg rotation - cart. axis [0,0,-1]       

 cryst.   s( 7) = (     0         -1          0      )
                  (     1          0          0      )
                  (     0          0          1      )

 cart.    s( 7) = (  0.0000000  1.0000000  0.0000000 )
                  ( -1.0000000  0.0000000  0.0000000 )
                  (  0.0000000  0.0000000  1.0000000 )


      isym =  8      90 deg rotation - cart. axis [0,0,1]        

 cryst.   s( 8) = (     0          1          0      )
                  (    -1          0          0      )
                  (     0          0          1      )

 cart.    s( 8) = (  0.0000000 -1.0000000  0.0000000 )
                  (  1.0000000  0.0000000  0.0000000 )
                  (  0.0000000  0.0000000  1.0000000 )


      isym =  9     180 deg rotation - cart. axis [1,0,1]        

 cryst.   s( 9) = (     0          0          1      )
                  (     0         -1          0      )
                  (     1          0          0      )

 cart.    s( 9) = (  0.0000000  0.0000000  1.0000000 )
                  (  0.0000000 -1.0000000  0.0000000 )
                  (  1.0000000  0.0000000  0.0000000 )


      isym = 10     180 deg rotation - cart. axis [-1,0,1]       

 cryst.   s(10) = (     0          0         -1      )
                  (     0         -1          0      )
                  (    -1          0          0      )

 cart.    s(10) = (  0.0000000  0.0000000 -1.0000000 )
                  (  0.0000000 -1.0000000  0.0000000 )
                  ( -1.0000000  0.0000000  0.0000000 )


      isym = 11      90 deg rotation - cart. axis [0,1,0]        

 cryst.   s(11) = (     0          0         -1      )
                  (     0          1          0      )
                  (     1          0          0      )

 cart.    s(11) = (  0.0000000  0.0000000  1.0000000 )
                  (  0.0000000  1.0000000  0.0000000 )
                  ( -1.0000000  0.0000000  0.0000000 )


      isym = 12      90 deg rotation - cart. axis [0,-1,0]       

 cryst.   s(12) = (     0          0          1      )
                  (     0          1          0      )
                  (    -1          0          0      )

 cart.    s(12) = (  0.0000000  0.0000000 -1.0000000 )
                  (  0.0000000  1.0000000  0.0000000 )
                  (  1.0000000  0.0000000  0.0000000 )


      isym = 13     180 deg rotation - cart. axis [0,1,1]        

 cryst.   s(13) = (    -1          0          0      )
                  (     0          0          1      )
                  (     0          1          0      )

 cart.    s(13) = ( -1.0000000  0.0000000  0.0000000 )
                  (  0.0000000  0.0000000  1.0000000 )
                  (  0.0000000  1.0000000  0.0000000 )


      isym = 14     180 deg rotation - cart. axis [0,1,-1]       

 cryst.   s(14) = (    -1          0          0      )
                  (     0          0         -1      )
                  (     0         -1          0      )

 cart.    s(14) = ( -1.0000000  0.0000000  0.0000000 )
                  (  0.0000000  0.0000000 -1.0000000 )
                  (  0.0000000 -1.0000000  0.0000000 )


      isym = 15      90 deg rotation - cart. axis [-1,0,0]       

 cryst.   s(15) = (     1          0          0      )
                  (     0          0         -1      )
                  (     0          1          0      )

 cart.    s(15) = (  1.0000000  0.0000000  0.0000000 )
                  (  0.0000000  0.0000000  1.0000000 )
                  (  0.0000000 -1.0000000  0.0000000 )


      isym = 16      90 deg rotation - cart. axis [1,0,0]        

 cryst.   s(16) = (     1          0          0      )
                  (     0          0          1      )
                  (     0         -1          0      )

 cart.    s(16) = (  1.0000000  0.0000000  0.0000000 )
                  (  0.0000000  0.0000000 -1.0000000 )
                  (  0.0000000  1.0000000  0.0000000 )


      isym = 17     120 deg rotation - cart. axis [-1,-1,-1]     

 cryst.   s(17) = (     0          0          1      )
                  (     1          0          0      )
                  (     0          1          0      )

 cart.    s(17) = (  0.0000000  1.0000000  0.0000000 )
                  (  0.0000000  0.0000000  1.0000000 )
                  (  1.0000000  0.0000000  0.0000000 )


      isym = 18     120 deg rotation - cart. axis [-1,1,1]       

 cryst.   s(18) = (     0          0         -1      )
                  (    -1          0          0      )
                  (     0          1          0      )

 cart.    s(18) = (  0.0000000 -1.0000000  0.0000000 )
                  (  0.0000000  0.0000000  1.0000000 )
                  ( -1.0000000  0.0000000  0.0000000 )


      isym = 19     120 deg rotation - cart. axis [1,1,-1]       

 cryst.   s(19) = (     0          0         -1      )
                  (     1          0          0      )
                  (     0         -1          0      )

 cart.    s(19) = (  0.0000000  1.0000000  0.0000000 )
                  (  0.0000000  0.0000000 -1.0000000 )
                  ( -1.0000000  0.0000000  0.0000000 )


      isym = 20     120 deg rotation - cart. axis [1,-1,1]       

 cryst.   s(20) = (     0          0          1      )
                  (    -1          0          0      )
                  (     0         -1          0      )

 cart.    s(20) = (  0.0000000 -1.0000000  0.0000000 )
                  (  0.0000000  0.0000000 -1.0000000 )
                  (  1.0000000  0.0000000  0.0000000 )


      isym = 21     120 deg rotation - cart. axis [1,1,1]        

 cryst.   s(21) = (     0          1          0      )
                  (     0          0          1      )
                  (     1          0          0      )

 cart.    s(21) = (  0.0000000  0.0000000  1.0000000 )
                  (  1.0000000  0.0000000  0.0000000 )
                  (  0.0000000  1.0000000  0.0000000 )


      isym = 22     120 deg rotation - cart. axis [-1,1,-1]      

 cryst.   s(22) = (     0         -1          0      )
                  (     0          0         -1      )
                  (     1          0          0      )

 cart.    s(22) = (  0.0000000  0.0000000  1.0000000 )
                  ( -1.0000000  0.0000000  0.0000000 )
                  (  0.0000000 -1.0000000  0.0000000 )


      isym = 23     120 deg rotation - cart. axis [1,-1,-1]      

 cryst.   s(23) = (     0         -1          0      )
                  (     0          0          1      )
                  (    -1          0          0      )

 cart.    s(23) = (  0.0000000  0.0000000 -1.0000000 )
                  ( -1.0000000  0.0000000  0.0000000 )
                  (  0.0000000  1.0000000  0.0000000 )


      isym = 24     120 deg rotation - cart. axis [-1,-1,1]      

 cryst.   s(24) = (     0          1          0      )
                  (     0          0         -1      )
                  (    -1          0          0      )

 cart.    s(24) = (  0.0000000  0.0000000 -1.0000000 )
                  (  1.0000000  0.0000000  0.0000000 )
                  (  0.0000000 -1.0000000  0.0000000 )


      isym = 25     inversion                                    

 cryst.   s(25) = (    -1          0          0      )
                  (     0         -1          0      )
                  (     0          0         -1      )

 cart.    s(25) = ( -1.0000000  0.0000000  0.0000000 )
                  (  0.0000000 -1.0000000  0.0000000 )
                  (  0.0000000  0.0000000 -1.0000000 )


      isym = 26     inv. 180 deg rotation - cart. axis [0,0,1]   

 cryst.   s(26) = (     1          0          0      )
                  (     0          1          0      )
                  (     0          0         -1      )

 cart.    s(26) = (  1.0000000  0.0000000  0.0000000 )
                  (  0.0000000  1.0000000  0.0000000 )
                  (  0.0000000  0.0000000 -1.0000000 )


      isym = 27     inv. 180 deg rotation - cart. axis [0,1,0]   

 cryst.   s(27) = (     1          0          0      )
                  (     0         -1          0      )
                  (     0          0          1      )

 cart.    s(27) = (  1.0000000  0.0000000  0.0000000 )
                  (  0.0000000 -1.0000000  0.0000000 )
                  (  0.0000000  0.0000000  1.0000000 )


      isym = 28     inv. 180 deg rotation - cart. axis [1,0,0]   

 cryst.   s(28) = (    -1          0          0      )
                  (     0          1          0      )
                  (     0          0          1      )

 cart.    s(28) = ( -1.0000000  0.0000000  0.0000000 )
                  (  0.0000000  1.0000000  0.0000000 )
                  (  0.0000000  0.0000000  1.0000000 )


      isym = 29     inv. 180 deg rotation - cart. axis [1,1,0]   

 cryst.   s(29) = (     0         -1          0      )
                  (    -1          0          0      )
                  (     0          0          1      )

 cart.    s(29) = (  0.0000000 -1.0000000  0.0000000 )
                  ( -1.0000000  0.0000000  0.0000000 )
                  (  0.0000000  0.0000000  1.0000000 )


      isym = 30     inv. 180 deg rotation - cart. axis [1,-1,0]  

 cryst.   s(30) = (     0          1          0      )
                  (     1          0          0      )
                  (     0          0          1      )

 cart.    s(30) = (  0.0000000  1.0000000  0.0000000 )
                  (  1.0000000  0.0000000  0.0000000 )
                  (  0.0000000  0.0000000  1.0000000 )


      isym = 31     inv.  90 deg rotation - cart. axis [0,0,-1]  

 cryst.   s(31) = (     0          1          0      )
                  (    -1          0          0      )
                  (     0          0         -1      )

 cart.    s(31) = (  0.0000000 -1.0000000  0.0000000 )
                  (  1.0000000  0.0000000  0.0000000 )
                  (  0.0000000  0.0000000 -1.0000000 )


      isym = 32     inv.  90 deg rotation - cart. axis [0,0,1]   

 cryst.   s(32) = (     0         -1          0      )
                  (     1          0          0      )
                  (     0          0         -1      )

 cart.    s(32) = (  0.0000000  1.0000000  0.0000000 )
                  ( -1.0000000  0.0000000  0.0000000 )
                  (  0.0000000  0.0000000 -1.0000000 )


      isym = 33     inv. 180 deg rotation - cart. axis [1,0,1]   

 cryst.   s(33) = (     0          0         -1      )
                  (     0          1          0      )
                  (    -1          0          0      )

 cart.    s(33) = (  0.0000000  0.0000000 -1.0000000 )
                  (  0.0000000  1.0000000  0.0000000 )
                  ( -1.0000000  0.0000000  0.0000000 )


      isym = 34     inv. 180 deg rotation - cart. axis [-1,0,1]  

 cryst.   s(34) = (     0          0          1      )
                  (     0          1          0      )
                  (     1          0          0      )

 cart.    s(34) = (  0.0000000  0.0000000  1.0000000 )
                  (  0.0000000  1.0000000  0.0000000 )
                  (  1.0000000  0.0000000  0.0000000 )


      isym = 35     inv.  90 deg rotation - cart. axis [0,1,0]   

 cryst.   s(35) = (     0          0          1      )
                  (     0         -1          0      )
                  (    -1          0          0      )

 cart.    s(35) = (  0.0000000  0.0000000 -1.0000000 )
                  (  0.0000000 -1.0000000  0.0000000 )
                  (  1.0000000  0.0000000  0.0000000 )


      isym = 36     inv.  90 deg rotation - cart. axis [0,-1,0]  

 cryst.   s(36) = (     0          0         -1      )
                  (     0         -1          0      )
                  (     1          0          0      )

 cart.    s(36) = (  0.0000000  0.0000000  1.0000000 )
                  (  0.0000000 -1.0000000  0.0000000 )
                  ( -1.0000000  0.0000000  0.0000000 )


      isym = 37     inv. 180 deg rotation - cart. axis [0,1,1]   

 cryst.   s(37) = (     1          0          0      )
                  (     0          0         -1      )
                  (     0         -1          0      )

 cart.    s(37) = (  1.0000000  0.0000000  0.0000000 )
                  (  0.0000000  0.0000000 -1.0000000 )
                  (  0.0000000 -1.0000000  0.0000000 )


      isym = 38     inv. 180 deg rotation - cart. axis [0,1,-1]  

 cryst.   s(38) = (     1          0          0      )
                  (     0          0          1      )
                  (     0          1          0      )

 cart.    s(38) = (  1.0000000  0.0000000  0.0000000 )
                  (  0.0000000  0.0000000  1.0000000 )
                  (  0.0000000  1.0000000  0.0000000 )


      isym = 39     inv.  90 deg rotation - cart. axis [-1,0,0]  

 cryst.   s(39) = (    -1          0          0      )
                  (     0          0          1      )
                  (     0         -1          0      )

 cart.    s(39) = ( -1.0000000  0.0000000  0.0000000 )
                  (  0.0000000  0.0000000 -1.0000000 )
                  (  0.0000000  1.0000000  0.0000000 )


      isym = 40     inv.  90 deg rotation - cart. axis [1,0,0]   

 cryst.   s(40) = (    -1          0          0      )
                  (     0          0         -1      )
                  (     0          1          0      )

 cart.    s(40) = ( -1.0000000  0.0000000  0.0000000 )
                  (  0.0000000  0.0000000  1.0000000 )
                  (  0.0000000 -1.0000000  0.0000000 )


      isym = 41     inv. 120 deg rotation - cart. axis [-1,-1,-1]

 cryst.   s(41) = (     0          0         -1      )
                  (    -1          0          0      )
                  (     0         -1          0      )

 cart.    s(41) = (  0.0000000 -1.0000000  0.0000000 )
                  (  0.0000000  0.0000000 -1.0000000 )
                  ( -1.0000000  0.0000000  0.0000000 )


      isym = 42     inv. 120 deg rotation - cart. axis [-1,1,1]  

 cryst.   s(42) = (     0          0          1      )
                  (     1          0          0      )
                  (     0         -1          0      )

 cart.    s(42) = (  0.0000000  1.0000000  0.0000000 )
                  (  0.0000000  0.0000000 -1.0000000 )
                  (  1.0000000  0.0000000  0.0000000 )


      isym = 43     inv. 120 deg rotation - cart. axis [1,1,-1]  

 cryst.   s(43) = (     0          0          1      )
                  (    -1          0          0      )
                  (     0          1          0      )

 cart.    s(43) = (  0.0000000 -1.0000000  0.0000000 )
                  (  0.0000000  0.0000000  1.0000000 )
                  (  1.0000000  0.0000000  0.0000000 )


      isym = 44     inv. 120 deg rotation - cart. axis [1,-1,1]  

 cryst.   s(44) = (     0          0         -1      )
                  (     1          0          0      )
                  (     0          1          0      )

 cart.    s(44) = (  0.0000000  1.0000000  0.0000000 )
                  (  0.0000000  0.0000000  1.0000000 )
                  ( -1.0000000  0.0000000  0.0000000 )


      isym = 45     inv. 120 deg rotation - cart. axis [1,1,1]   

 cryst.   s(45) = (     0         -1          0      )
                  (     0          0         -1      )
                  (    -1          0          0      )

 cart.    s(45) = (  0.0000000  0.0000000 -1.0000000 )
                  ( -1.0000000  0.0000000  0.0000000 )
                  (  0.0000000 -1.0000000  0.0000000 )


      isym = 46     inv. 120 deg rotation - cart. axis [-1,1,-1] 

 cryst.   s(46) = (     0          1          0      )
                  (     0          0          1      )
                  (    -1          0          0      )

 cart.    s(46) = (  0.0000000  0.0000000 -1.0000000 )
                  (  1.0000000  0.0000000  0.0000000 )
                  (  0.0000000  1.0000000  0.0000000 )


      isym = 47     inv. 120 deg rotation - cart. axis [1,-1,-1] 

 cryst.   s(47) = (     0          1          0      )
                  (     0          0         -1      )
                  (     1          0          0      )

 cart.    s(47) = (  0.0000000  0.0000000  1.0000000 )
                  (  1.0000000  0.0000000  0.0000000 )
                  (  0.0000000 -1.0000000  0.0000000 )


      isym = 48     inv. 120 deg rotation - cart. axis [-1,-1,1] 

 cryst.   s(48) = (     0         -1          0      )
                  (     0          0          1      )
                  (     1          0          0      )

 cart.    s(48) = (  0.0000000  0.0000000  1.0000000 )
                  ( -1.0000000  0.0000000  0.0000000 )
                  (  0.0000000  1.0000000  0.0000000 )


   Cartesian axes

     site n.     atom                  positions (alat units)
         1        Ba     tau(   1) = (   0.0000000   0.0000000   0.0000000  )
         2        Ca     tau(   2) = (   0.5000000   0.5000000   0.5000000  )
         3        O      tau(   3) = (   0.5000000   0.5000000   0.0000000  )
         4        O      tau(   4) = (   0.5000000   0.0000000   0.5000000  )
         5        O      tau(   5) = (   0.0000000   0.5000000   0.5000000  )

   Crystallographic axes

     site n.     atom                  positions (cryst. coord.)
         1        Ba     tau(   1) = (  0.0000000  0.0000000  0.0000000  )
         2        Ca     tau(   2) = (  0.5000000  0.5000000  0.5000000  )
         3        O      tau(   3) = (  0.5000000  0.5000000  0.0000000  )
         4        O      tau(   4) = (  0.5000000  0.0000000  0.5000000  )
         5        O      tau(   5) = (  0.0000000  0.5000000  0.5000000  )

     number of k points=    35  Marzari-Vanderbilt smearing, width (Ry)=  0.0200
                       cart. coord. in units 2pi/alat
        k(    1) = (   0.0500000   0.0500000   0.0500000), wk =   0.0160000
        k(    2) = (   0.0500000   0.0500000   0.1500000), wk =   0.0480000
        k(    3) = (   0.0500000   0.0500000   0.2500000), wk =   0.0480000
        k(    4) = (   0.0500000   0.0500000   0.3500000), wk =   0.0480000
        k(    5) = (   0.0500000   0.0500000   0.4500000), wk =   0.0480000
        k(    6) = (   0.0500000   0.1500000   0.1500000), wk =   0.0480000
        k(    7) = (   0.0500000   0.1500000   0.2500000), wk =   0.0960000
        k(    8) = (   0.0500000   0.1500000   0.3500000), wk =   0.0960000
        k(    9) = (   0.0500000   0.1500000   0.4500000), wk =   0.0960000
        k(   10) = (   0.0500000   0.2500000   0.2500000), wk =   0.0480000
        k(   11) = (   0.0500000   0.2500000   0.3500000), wk =   0.0960000
        k(   12) = (   0.0500000   0.2500000   0.4500000), wk =   0.0960000
        k(   13) = (   0.0500000   0.3500000   0.3500000), wk =   0.0480000
        k(   14) = (   0.0500000   0.3500000   0.4500000), wk =   0.0960000
        k(   15) = (   0.0500000   0.4500000   0.4500000), wk =   0.0480000
        k(   16) = (   0.1500000   0.1500000   0.1500000), wk =   0.0160000
        k(   17) = (   0.1500000   0.1500000   0.2500000), wk =   0.0480000
        k(   18) = (   0.1500000   0.1500000   0.3500000), wk =   0.0480000
        k(   19) = (   0.1500000   0.1500000   0.4500000), wk =   0.0480000
        k(   20) = (   0.1500000   0.2500000   0.2500000), wk =   0.0480000
        k(   21) = (   0.1500000   0.2500000   0.3500000), wk =   0.0960000
        k(   22) = (   0.1500000   0.2500000   0.4500000), wk =   0.0960000
        k(   23) = (   0.1500000   0.3500000   0.3500000), wk =   0.0480000
        k(   24) = (   0.1500000   0.3500000   0.4500000), wk =   0.0960000
        k(   25) = (   0.1500000   0.4500000   0.4500000), wk =   0.0480000
        k(   26) = (   0.2500000   0.2500000   0.2500000), wk =   0.0160000
        k(   27) = (   0.2500000   0.2500000   0.3500000), wk =   0.0480000
        k(   28) = (   0.2500000   0.2500000   0.4500000), wk =   0.0480000
        k(   29) = (   0.2500000   0.3500000   0.3500000), wk =   0.0480000
        k(   30) = (   0.2500000   0.3500000   0.4500000), wk =   0.0960000
        k(   31) = (   0.2500000   0.4500000   0.4500000), wk =   0.0480000
        k(   32) = (   0.3500000   0.3500000   0.3500000), wk =   0.0160000
        k(   33) = (   0.3500000   0.3500000   0.4500000), wk =   0.0480000
        k(   34) = (   0.3500000   0.4500000   0.4500000), wk =   0.0480000
        k(   35) = (   0.4500000   0.4500000   0.4500000), wk =   0.0160000

                       cryst. coord.
        k(    1) = (   0.0500000   0.0500000   0.0500000), wk =   0.0160000
        k(    2) = (   0.0500000   0.0500000   0.1500000), wk =   0.0480000
        k(    3) = (   0.0500000   0.0500000   0.2500000), wk =   0.0480000
        k(    4) = (   0.0500000   0.0500000   0.3500000), wk =   0.0480000
        k(    5) = (   0.0500000   0.0500000   0.4500000), wk =   0.0480000
        k(    6) = (   0.0500000   0.1500000   0.1500000), wk =   0.0480000
        k(    7) = (   0.0500000   0.1500000   0.2500000), wk =   0.0960000
        k(    8) = (   0.0500000   0.1500000   0.3500000), wk =   0.0960000
        k(    9) = (   0.0500000   0.1500000   0.4500000), wk =   0.0960000
        k(   10) = (   0.0500000   0.2500000   0.2500000), wk =   0.0480000
        k(   11) = (   0.0500000   0.2500000   0.3500000), wk =   0.0960000
        k(   12) = (   0.0500000   0.2500000   0.4500000), wk =   0.0960000
        k(   13) = (   0.0500000   0.3500000   0.3500000), wk =   0.0480000
        k(   14) = (   0.0500000   0.3500000   0.4500000), wk =   0.0960000
        k(   15) = (   0.0500000   0.4500000   0.4500000), wk =   0.0480000
        k(   16) = (   0.1500000   0.1500000   0.1500000), wk =   0.0160000
        k(   17) = (   0.1500000   0.1500000   0.2500000), wk =   0.0480000
        k(   18) = (   0.1500000   0.1500000   0.3500000), wk =   0.0480000
        k(   19) = (   0.1500000   0.1500000   0.4500000), wk =   0.0480000
        k(   20) = (   0.1500000   0.2500000   0.2500000), wk =   0.0480000
        k(   21) = (   0.1500000   0.2500000   0.3500000), wk =   0.0960000
        k(   22) = (   0.1500000   0.2500000   0.4500000), wk =   0.0960000
        k(   23) = (   0.1500000   0.3500000   0.3500000), wk =   0.0480000
        k(   24) = (   0.1500000   0.3500000   0.4500000), wk =   0.0960000
        k(   25) = (   0.1500000   0.4500000   0.4500000), wk =   0.0480000
        k(   26) = (   0.2500000   0.2500000   0.2500000), wk =   0.0160000
        k(   27) = (   0.2500000   0.2500000   0.3500000), wk =   0.0480000
        k(   28) = (   0.2500000   0.2500000   0.4500000), wk =   0.0480000
        k(   29) = (   0.2500000   0.3500000   0.3500000), wk =   0.0480000
        k(   30) = (   0.2500000   0.3500000   0.4500000), wk =   0.0960000
        k(   31) = (   0.2500000   0.4500000   0.4500000), wk =   0.0480000
        k(   32) = (   0.3500000   0.3500000   0.3500000), wk =   0.0160000
        k(   33) = (   0.3500000   0.3500000   0.4500000), wk =   0.0480000
        k(   34) = (   0.3500000   0.4500000   0.4500000), wk =   0.0480000
        k(   35) = (   0.4500000   0.4500000   0.4500000), wk =   0.0160000

     Dense  grid:    10131 G-vectors     FFT dimensions: (  27,  27,  27)

     Smooth grid:     2553 G-vectors     FFT dimensions: (  18,  18,  18)

     Dynamical RAM for                 wfc:       0.02 MB

     Dynamical RAM for     wfc (w. buffer):       0.22 MB

     Dynamical RAM for           str. fact:       0.09 MB

     Dynamical RAM for           local pot:       0.00 MB

     Dynamical RAM for          nlocal pot:       0.06 MB

     Dynamical RAM for                qrad:       3.22 MB

     Dynamical RAM for          rho,v,vnew:       0.19 MB

     Dynamical RAM for               rhoin:       0.06 MB

     Dynamical RAM for            rho*nmix:       0.49 MB

     Dynamical RAM for           G-vectors:       0.12 MB

     Dynamical RAM for          h,s,v(r/c):       0.10 MB

     Dynamical RAM for          <psi|beta>:       0.02 MB

     Dynamical RAM for                 psi:       0.04 MB

     Dynamical RAM for                hpsi:       0.04 MB

     Dynamical RAM for                spsi:       0.04 MB

     Dynamical RAM for      wfcinit/wfcrot:       0.07 MB

     Dynamical RAM for           addusdens:       1.63 MB

     Dynamical RAM for          addusforce:       1.67 MB

     Dynamical RAM for         addusstress:       1.71 MB

     Estimated static dynamical RAM per process >       4.26 MB

     Estimated max dynamical RAM per process >       6.47 MB

     Estimated total dynamical RAM >     121.91 MB

     Check: negative core charge=   -0.000271

     Initial potential from superposition of free atoms

     starting charge      37.9791, renormalised to      38.0000
     Starting wfcs are   27 randomized atomic wfcs
     Checking if some PAW data can be deallocated... 
       PAW data deallocated on   16 nodes for type:  1
       PAW data deallocated on    8 nodes for type:  3

     total cpu time spent up to now is        0.7 secs

     Self-consistent Calculation

     iteration #  1     ecut=    10.00 Ry     beta= 0.40
     Davidson diagonalization with overlap

---- Real-time Memory Report at c_bands before calling an iterative solver
            50 MiB given to the printing process from OS
             0 MiB allocation reported by mallinfo(arena+hblkhd)
         26217 MiB available memory on the node where the printing process lives
------------------
     ethr =  1.00E-02,  avg # of iterations =  5.3

     total cpu time spent up to now is        0.9 secs

     total energy              =    -617.00029591 Ry
     estimated scf accuracy    <       5.83006829 Ry

     iteration #  2     ecut=    10.00 Ry     beta= 0.40
     Davidson diagonalization with overlap

---- Real-time Memory Report at c_bands before calling an iterative solver
            52 MiB given to the printing process from OS
             0 MiB allocation reported by mallinfo(arena+hblkhd)
         26213 MiB available memory on the node where the printing process lives
------------------
     ethr =  1.00E-02,  avg # of iterations =  2.0

     total cpu time spent up to now is        1.1 secs

     total energy              =    -617.56988114 Ry
     estimated scf accuracy    <       0.73421463 Ry

     iteration #  3     ecut=    10.00 Ry     beta= 0.40
     Davidson diagonalization with overlap

---- Real-time Memory Report at c_bands before calling an iterative solver
            52 MiB given to the printing process from OS
             0 MiB allocation reported by mallinfo(arena+hblkhd)
         26213 MiB available memory on the node where the printing process lives
------------------
     ethr =  1.93E-03,  avg # of iterations =  1.3

     total cpu time spent up to now is        1.2 secs

     total energy              =    -617.50767276 Ry
     estimated scf accuracy    <       0.18979178 Ry

     iteration #  4     ecut=    10.00 Ry     beta= 0.40
     Davidson diagonalization with overlap

---- Real-time Memory Report at c_bands before calling an iterative solver
            52 MiB given to the printing process from OS
             0 MiB allocation reported by mallinfo(arena+hblkhd)
         26213 MiB available memory on the node where the printing process lives
------------------
     ethr =  4.99E-04,  avg # of iterations =  2.7

     total cpu time spent up to now is        1.7 secs

     total energy              =    -617.51811797 Ry
     estimated scf accuracy    <       0.00429638 Ry

     iteration #  5     ecut=    10.00 Ry     beta= 0.40
     Davidson diagonalization with overlap

---- Real-time Memory Report at c_bands before calling an iterative solver
            52 MiB given to the printing process from OS
             0 MiB allocation reported by mallinfo(arena+hblkhd)
         26198 MiB available memory on the node where the printing process lives
------------------
     ethr =  1.13E-05,  avg # of iterations =  5.7

     total cpu time spent up to now is        2.2 secs

     total energy              =    -617.51913811 Ry
     estimated scf accuracy    <       0.00035113 Ry

     iteration #  6     ecut=    10.00 Ry     beta= 0.40
     Davidson diagonalization with overlap

---- Real-time Memory Report at c_bands before calling an iterative solver
            53 MiB given to the printing process from OS
             0 MiB allocation reported by mallinfo(arena+hblkhd)
         26210 MiB available memory on the node where the printing process lives
------------------
     ethr =  9.24E-07,  avg # of iterations =  2.1

     total cpu time spent up to now is        2.5 secs

     total energy              =    -617.51934067 Ry
     estimated scf accuracy    <       0.00004791 Ry

     iteration #  7     ecut=    10.00 Ry     beta= 0.40
     Davidson diagonalization with overlap

---- Real-time Memory Report at c_bands before calling an iterative solver
            53 MiB given to the printing process from OS
             0 MiB allocation reported by mallinfo(arena+hblkhd)
         26189 MiB available memory on the node where the printing process lives
------------------
     ethr =  1.26E-07,  avg # of iterations =  2.0

     total cpu time spent up to now is        2.9 secs

     total energy              =    -617.51942369 Ry
     estimated scf accuracy    <       0.00000625 Ry

     iteration #  8     ecut=    10.00 Ry     beta= 0.40
     Davidson diagonalization with overlap

---- Real-time Memory Report at c_bands before calling an iterative solver
            53 MiB given to the printing process from OS
             0 MiB allocation reported by mallinfo(arena+hblkhd)
         26177 MiB available memory on the node where the printing process lives
------------------
     ethr =  1.65E-08,  avg # of iterations =  2.0

     total cpu time spent up to now is        3.0 secs

     total energy              =    -617.51945307 Ry
     estimated scf accuracy    <       0.00000063 Ry

     iteration #  9     ecut=    10.00 Ry     beta= 0.40
     Davidson diagonalization with overlap

---- Real-time Memory Report at c_bands before calling an iterative solver
            53 MiB given to the printing process from OS
             0 MiB allocation reported by mallinfo(arena+hblkhd)
         26177 MiB available memory on the node where the printing process lives
------------------
     ethr =  1.66E-09,  avg # of iterations =  2.3

     total cpu time spent up to now is        3.2 secs

     End of self-consistent calculation

          k = 0.0500 0.0500 0.0500 (   326 PWs)   bands (ev):

   -32.5650 -18.8853 -18.6603 -18.6603 -17.9779 -11.5438 -11.5438 -11.4038
    -3.7080  -3.7080  -3.6841   5.4428   5.4994   5.4994   5.8288   5.9432
     5.9432   8.2716   8.4403   8.4403  10.4774  11.0962  11.0962

     occupation numbers 
     1.0000   1.0000   1.0000   1.0000   1.0000   1.0000   1.0000   1.0000
     1.0000   1.0000   1.0000   1.0000   1.0000   1.0000   1.0000   1.0000
     1.0000   0.0000   0.0000   0.0000   0.0000   0.0000   0.0000

          k = 0.0500 0.0500 0.1500 (   323 PWs)   bands (ev):

   -32.5401 -18.8962 -18.6253 -18.5204 -18.0887 -11.6067 -11.3669 -11.2136
    -3.7140  -3.7122  -3.6590   5.0682   5.3547   5.5125   5.8645   6.0702
     6.5150   7.5566   8.1998   8.3927  11.0731  11.4061  11.4868

     occupation numbers 
     1.0000   1.0000   1.0000   1.0000   1.0000   1.0000   1.0000   1.0000
     1.0000   1.0000   1.0000   1.0000   1.0000   1.0000   1.0000   1.0000
     1.0000   0.4754   0.0001   0.0000   0.0000   0.0000   0.0000

          k = 0.0500 0.0500 0.2500 (   318 PWs)   bands (ev):

   -32.5141 -18.9160 -18.5047 -18.3975 -18.2297 -11.4474 -11.3279 -10.9707
    -3.7132  -3.6452  -3.6340   5.1485   5.6748   5.7802   5.9882   5.9884
     6.4791   6.5062   7.9318   8.0835  11.8376  11.9448  12.0811

     occupation numbers 
     1.0000   1.0000   1.0000   1.0000   1.0000   1.0000   1.0000   1.0000
     1.0000   1.0000   1.0000   1.0000   1.0000   1.0000   1.0000   1.0000
     1.0000   1.0000   0.0105   0.0008   0.0000   0.0000   0.0000

          k = 0.0500 0.0500 0.3500 (   320 PWs)   bands (ev):

   -32.5277 -18.9133 -18.4962 -18.4266 -18.3300 -11.5070 -11.2436 -10.9381
    -3.7587  -3.6410  -3.6302   4.9087   5.3063   5.4479   5.5474   5.8807
     6.0217   6.3611   7.8670   8.0638  12.3070  12.7472  12.8456

     occupation numbers 
     1.0000   1.0000   1.0000   1.0000   1.0000   1.0000   1.0000   1.0000
     1.0000   1.0000   1.0000   1.0000   1.0000   1.0000   1.0000   1.0000
     1.0000   1.0000   0.0261   0.0012   0.0000   0.0000   0.0000

          k = 0.0500 0.0500 0.4500 (   326 PWs)   bands (ev):

   -32.5637 -18.9146 -18.5130 -18.4900 -18.4306 -11.5014 -11.3403 -11.1614
    -3.7989  -3.6344  -3.6340   4.3038   4.9454   5.3108   5.4115   5.5020
     6.0209   6.1218   7.6104   7.7856  12.6527  13.1045  13.5644

     occupation numbers 
     1.0000   1.0000   1.0000   1.0000   1.0000   1.0000   1.0000   1.0000
     1.0000   1.0000   1.0000   1.0000   1.0000   1.0000   1.0000   1.0000
     1.0000   1.0000   0.3398   0.0704   0.0000   0.0000   0.0000

          k = 0.0500 0.1500 0.1500 (   315 PWs)   bands (ev):

   -32.4990 -18.8788 -18.5549 -18.4176 -18.0826 -11.3957 -11.1245 -11.1011
    -3.7169  -3.6753  -3.6343   4.9531   5.5925   5.8273   5.9417   6.1763
     6.7358   7.2900   8.2729   8.3226  11.4839  11.6805  11.7005

     occupation numbers 
     1.0000   1.0000   1.0000   1.0000   1.0000   1.0000   1.0000   1.0000
     1.0000   1.0000   1.0000   1.0000   1.0000   1.0000   1.0000   1.0000
     1.0009   1.0494   0.0000   0.0000   0.0000   0.0000   0.0000

          k = 0.0500 0.1500 0.2500 (   318 PWs)   bands (ev):

   -32.5182 -18.8859 -18.5586 -18.4082 -18.2382 -11.4818 -11.2460 -10.9831
    -3.7438  -3.6702  -3.6413   4.7690   5.5040   5.6426   5.8463   6.0308
     6.3690   6.7251   7.8007   7.9913  12.0121  12.1124  12.2845

     occupation numbers 
     1.0000   1.0000   1.0000   1.0000   1.0000   1.0000   1.0000   1.0000
     1.0000   1.0000   1.0000   1.0000   1.0000   1.0000   1.0000   1.0000
     1.0000   1.0007   0.0593   0.0041   0.0000   0.0000   0.0000

          k = 0.0500 0.1500 0.3500 (   321 PWs)   bands (ev):

   -32.5371 -18.8938 -18.5590 -18.4214 -18.3628 -11.4402 -11.3115 -11.0065
    -3.7795  -3.6737  -3.6165   4.6113   5.0259   5.5355   5.6130   5.6930
     6.1045   6.6954   7.4605   7.7967  12.5342  12.6647  12.9911

     occupation numbers 
     1.0000   1.0000   1.0000   1.0000   1.0000   1.0000   1.0000   1.0000
     1.0000   1.0000   1.0000   1.0000   1.0000   1.0000   1.0000   1.0000
     1.0000   1.0004   0.7379   0.0621   0.0000   0.0000   0.0000

          k = 0.0500 0.1500 0.4500 (   324 PWs)   bands (ev):

   -32.5532 -18.8978 -18.5460 -18.4866 -18.4087 -11.4909 -11.3386 -11.0184
    -3.8078  -3.6662  -3.6215   4.4196   4.6849   5.3453   5.5289   5.6031
     5.9579   6.6543   7.2548   7.5109  12.8708  13.2350  13.4758

     occupation numbers 
     1.0000   1.0000   1.0000   1.0000   1.0000   1.0000   1.0000   1.0000
     1.0000   1.0000   1.0000   1.0000   1.0000   1.0000   1.0000   1.0000
     1.0000   1.0002   1.0719   0.6006   0.0000   0.0000   0.0000

          k = 0.0500 0.2500 0.2500 (   320 PWs)   bands (ev):

   -32.5262 -18.8618 -18.5877 -18.4386 -18.3047 -11.5574 -11.1205 -11.0142
    -3.7722  -3.7012  -3.6380   4.4846   5.3525   5.4488   5.5603   5.7145
     6.2376   6.9221   7.6367   7.6387  12.1893  12.6317  12.7138

     occupation numbers 
     1.0000   1.0000   1.0000   1.0000   1.0000   1.0000   1.0000   1.0000
     1.0000   1.0000   1.0000   1.0000   1.0000   1.0000   1.0000   1.0000
     1.0000   1.0128   0.2815   0.2772   0.0000   0.0000   0.0000

          k = 0.0500 0.2500 0.3500 (   321 PWs)   bands (ev):

   -32.5344 -18.8450 -18.5652 -18.5192 -18.3552 -11.4977 -11.1999 -10.9101
    -3.7962  -3.7406  -3.6107   4.3823   4.6898   5.3854   5.3981   5.6672
     6.0655   6.8586   7.4114   7.7098  12.5608  13.0333  13.3274

     occupation numbers 
     1.0000   1.0000   1.0000   1.0000   1.0000   1.0000   1.0000   1.0000
     1.0000   1.0000   1.0000   1.0000   1.0000   1.0000   1.0000   1.0000
     1.0000   1.0057   0.8590   0.1526   0.0000   0.0000   0.0000

          k = 0.0500 0.2500 0.4500 (   322 PWs)   bands (ev):

   -32.5384 -18.8407 -18.5711 -18.5187 -18.4213 -11.4406 -11.1636 -10.9693
    -3.8317  -3.7500  -3.5895   4.1982   4.3249   5.3461   5.5042   5.5529
     6.0139   6.9366   7.2522   7.6710  12.9763  13.2533  13.6821

     occupation numbers 
     1.0000   1.0000   1.0000   1.0000   1.0000   1.0000   1.0000   1.0000
     1.0000   1.0000   1.0000   1.0000   1.0000   1.0000   1.0000   1.0000
     1.0000   1.0151   1.0731   0.2147   0.0000   0.0000   0.0000

          k = 0.0500 0.3500 0.3500 (   325 PWs)   bands (ev):

   -32.5555 -18.8152 -18.6477 -18.5695 -18.4212 -11.5352 -11.2301 -10.8599
    -3.8225  -3.8049  -3.6005   4.0983   4.3041   5.2173   5.2462   5.5653
     5.9004   6.5278   7.4655   7.4751  12.6010  13.3497  13.8870

     occupation numbers 
     1.0000   1.0000   1.0000   1.0000   1.0000   1.0000   1.0000   1.0000
     1.0000   1.0000   1.0000   1.0000   1.0000   1.0000   1.0000   1.0000
     1.0000   1.0000   0.7248   0.6989   0.0000   0.0000   0.0000

          k = 0.0500 0.3500 0.4500 (   324 PWs)   bands (ev):

   -32.5521 -18.8064 -18.6292 -18.6082 -18.4456 -11.5611 -11.0733 -10.8010
    -3.8440  -3.8313  -3.5862   3.9590   4.0827   5.2445   5.3290   5.4426
     6.2089   6.5073   7.3848   7.5959  12.7009  13.5119  14.2835

     occupation numbers 
     1.0000   1.0000   1.0000   1.0000   1.0000   1.0000   1.0000   1.0000
     1.0000   1.0000   1.0000   1.0000   1.0000   1.0000   1.0000   1.0000
     1.0000   1.0000   0.9154   0.3745   0.0000   0.0000   0.0000

          k = 0.0500 0.4500 0.4500 (   322 PWs)   bands (ev):

   -32.5404 -18.7575 -18.6565 -18.6361 -18.4545 -11.6455 -10.8260 -10.6449
    -3.8565  -3.8406  -3.5793   3.9035   4.1482   5.1217   5.3310   5.4115
     6.3198   6.4315   7.3328   7.7104  12.5447  13.7238  14.7070

     occupation numbers 
     1.0000   1.0000   1.0000   1.0000   1.0000   1.0000   1.0000   1.0000
     1.0000   1.0000   1.0000   1.0000   1.0000   1.0000   1.0000   1.0000
     1.0000   1.0000   1.0026   0.1518   0.0000   0.0000   0.0000

          k = 0.1500 0.1500 0.1500 (   317 PWs)   bands (ev):

   -32.5098 -18.8801 -18.4953 -18.4953 -18.1736 -11.2267 -11.2018 -11.2018
    -3.7141  -3.7141  -3.6216   4.6779   5.5175   5.5175   6.0905   6.0905
     6.8109   7.0000   8.1103   8.1103  11.7632  11.8240  11.8240

     occupation numbers 
     1.0000   1.0000   1.0000   1.0000   1.0000   1.0000   1.0000   1.0000
     1.0000   1.0000   1.0000   1.0000   1.0000   1.0000   1.0000   1.0000
     1.0029   1.0290   0.0005   0.0005   0.0000   0.0000   0.0000

          k = 0.1500 0.1500 0.2500 (   316 PWs)   bands (ev):

   -32.5067 -18.8673 -18.4945 -18.4555 -18.2507 -11.3015 -11.1677 -10.9772
    -3.7510  -3.7027  -3.6298   4.5683   5.5135   5.5204   5.9341   5.9842
     6.3547   6.9302   7.7841   7.8411  12.2088  12.2102  12.2365

     occupation numbers 
     1.0000   1.0000   1.0000   1.0000   1.0000   1.0000   1.0000   1.0000
     1.0000   1.0000   1.0000   1.0000   1.0000   1.0000   1.0000   1.0000
     1.0000   1.0140   0.0716   0.0364   0.0000   0.0000   0.0000

          k = 0.1500 0.1500 0.3500 (   316 PWs)   bands (ev):

   -32.5087 -18.8585 -18.4839 -18.3893 -18.3484 -11.2524 -11.1310 -10.9500
    -3.7853  -3.6774  -3.6296   4.5778   5.1363   5.4400   5.6441   5.8511
     6.3946   6.9076   7.4485   7.5191  12.6225  12.8115  12.8538

     occupation numbers 
     1.0000   1.0000   1.0000   1.0000   1.0000   1.0000   1.0000   1.0000
     1.0000   1.0000   1.0000   1.0000   1.0000   1.0000   1.0000   1.0000
     1.0000   1.0107   0.7690   0.5780   0.0000   0.0000   0.0000

          k = 0.1500 0.1500 0.4500 (   322 PWs)   bands (ev):

   -32.5388 -18.8635 -18.5034 -18.4657 -18.4537 -11.3879 -11.1534 -11.1012
    -3.8255  -3.6710  -3.6338   4.3565   4.6136   5.2857   5.4463   5.6357
     6.3891   6.7064   7.0965   7.3954  12.9097  13.3338  13.3569

     occupation numbers 
     1.0000   1.0000   1.0000   1.0000   1.0000   1.0000   1.0000   1.0000
     1.0000   1.0000   1.0000   1.0000   1.0000   1.0000   1.0000   1.0000
     1.0000   1.0005   1.0600   0.8939   0.0000   0.0000   0.0000

          k = 0.1500 0.2500 0.2500 (   314 PWs)   bands (ev):

   -32.4943 -18.8411 -18.5120 -18.3889 -18.2894 -11.2820 -11.0447 -10.8454
    -3.7612  -3.7238  -3.6412   4.4748   5.4255   5.4985   5.5732   6.0482
     6.1733   7.1390   7.5346   7.6224  12.3425  12.5765  12.5828

     occupation numbers 
     1.0000   1.0000   1.0000   1.0000   1.0000   1.0000   1.0000   1.0000
     1.0000   1.0000   1.0000   1.0000   1.0000   1.0000   1.0000   1.0000
     1.0000   1.0735   0.5352   0.3126   0.0000   0.0000   0.0000

          k = 0.1500 0.2500 0.3500 (   323 PWs)   bands (ev):

   -32.5452 -18.8403 -18.5901 -18.5065 -18.4267 -11.4524 -11.1932 -10.9787
    -3.8183  -3.7534  -3.6548   4.2634   4.7504   5.2849   5.4198   5.6198
     6.1344   6.8153   7.0477   7.3942  12.6398  12.8795  13.0701

     occupation numbers 
     1.0000   1.0000   1.0000   1.0000   1.0000   1.0000   1.0000   1.0000
     1.0000   1.0000   1.0000   1.0000   1.0000   1.0000   1.0000   1.0000
     1.0000   1.0031   1.0434   0.8963   0.0000   0.0000   0.0000

          k = 0.1500 0.2500 0.4500 (   326 PWs)   bands (ev):

   -32.5612 -18.8447 -18.5983 -18.5328 -18.5141 -11.4972 -11.2422 -10.9674
    -3.8473  -3.7646  -3.6546   4.2667   4.3788   5.1511   5.2792   5.3882
     6.3285   6.4933   7.0663   7.1123  12.9635  13.0847  13.5730

     occupation numbers 
     1.0000   1.0000   1.0000   1.0000   1.0000   1.0000   1.0000   1.0000
     1.0000   1.0000   1.0000   1.0000   1.0000   1.0000   1.0000   1.0000
     1.0000   1.0000   1.0496   1.0653   0.0000   0.0000   0.0000

          k = 0.1500 0.3500 0.3500 (   322 PWs)   bands (ev):

   -32.5382 -18.7975 -18.6614 -18.4958 -18.4626 -11.5076 -11.0521 -10.7328
    -3.8346  -3.8095  -3.6640   4.1569   4.4235   5.1219   5.3443   5.5719
     5.9918   6.9503   6.9860   7.6499  12.5931  13.2179  13.4075

     occupation numbers 
     1.0000   1.0000   1.0000   1.0000   1.0000   1.0000   1.0000   1.0000
     1.0000   1.0000   1.0000   1.0000   1.0000   1.0000   1.0000   1.0000
     1.0000   1.0176   1.0254   0.2545   0.0000   0.0000   0.0000

          k = 0.1500 0.3500 0.4500 (   325 PWs)   bands (ev):

   -32.5568 -18.7910 -18.6694 -18.5888 -18.4970 -11.5851 -10.9817 -10.7816
    -3.8636  -3.8359  -3.6752   4.0836   4.2284   5.0446   5.1559   5.3984
     6.0685   6.6509   6.9223   7.5900  12.6142  13.3949  13.7820

     occupation numbers 
     1.0000   1.0000   1.0000   1.0000   1.0000   1.0000   1.0000   1.0000
     1.0000   1.0000   1.0000   1.0000   1.0000   1.0000   1.0000   1.0000
     1.0000   1.0002   1.0128   0.3890   0.0000   0.0000   0.0000

          k = 0.1500 0.4500 0.4500 (   324 PWs)   bands (ev):

   -32.5543 -18.7477 -18.7001 -18.6161 -18.5029 -11.5438 -10.8772 -10.6964
    -3.8823  -3.8781  -3.6730   3.9737   4.0604   5.0064   5.0888   5.4148
     6.2813   6.6459   6.7246   7.8112  12.4272  13.7255  13.8476

     occupation numbers 
     1.0000   1.0000   1.0000   1.0000   1.0000   1.0000   1.0000   1.0000
     1.0000   1.0000   1.0000   1.0000   1.0000   1.0000   1.0000   1.0000
     1.0000   1.0002   1.0007   0.0524   0.0000   0.0000   0.0000

          k = 0.2500 0.2500 0.2500 (   314 PWs)   bands (ev):

   -32.4924 -18.8108 -18.4803 -18.4803 -18.2988 -11.2905 -10.8567 -10.8567
    -3.7726  -3.7726  -3.6792   4.3171   5.3511   5.4222   5.4222   5.7304
     5.7304   7.5060   7.5416   7.5416  12.5641  12.6138  12.6138

     occupation numbers 
     1.0000   1.0000   1.0000   1.0000   1.0000   1.0000   1.0000   1.0000
     1.0000   1.0000   1.0000   1.0000   1.0000   1.0000   1.0000   1.0000
     1.0000   0.6141   0.5159   0.5159   0.0000   0.0000   0.0000

          k = 0.2500 0.2500 0.3500 (   319 PWs)   bands (ev):

   -32.5206 -18.7906 -18.5813 -18.5398 -18.3712 -11.4323 -10.8994 -10.8966
    -3.8346  -3.7771  -3.7173   4.2546   4.7947   5.1746   5.2946   5.5846
     5.6132   7.3445   7.3614   7.4785  12.6827  12.8525  12.8996

     occupation numbers 
     1.0000   1.0000   1.0000   1.0000   1.0000   1.0000   1.0000   1.0000
     1.0000   1.0000   1.0000   1.0000   1.0000   1.0000   1.0000   1.0000
     1.0000   0.9859   0.9588   0.6898   0.0000   0.0000   0.0000

          k = 0.2500 0.2500 0.4500 (   323 PWs)   bands (ev):

   -32.5458 -18.7956 -18.5723 -18.5657 -18.4926 -11.3147 -11.0785 -10.9738
    -3.8780  -3.8024  -3.7301   4.1170   4.3990   5.1097   5.2521   5.3728
     5.8823   6.8275   7.2587   7.3796  12.8177  12.9413  13.3088

     occupation numbers 
     1.0000   1.0000   1.0000   1.0000   1.0000   1.0000   1.0000   1.0000
     1.0000   1.0000   1.0000   1.0000   1.0000   1.0000   1.0000   1.0000
     1.0000   1.0037   1.0701   0.9257   0.0000   0.0000   0.0000

          k = 0.2500 0.3500 0.3500 (   318 PWs)   bands (ev):

   -32.5197 -18.7715 -18.6144 -18.5020 -18.4609 -11.2492 -10.9822 -10.7196
    -3.8556  -3.8451  -3.7354   4.1587   4.6622   5.1800   5.2043   5.6115
     5.8236   7.0955   7.2572   7.6717  12.5473  12.9315  12.9945

     occupation numbers 
     1.0000   1.0000   1.0000   1.0000   1.0000   1.0000   1.0000   1.0000
     1.0000   1.0000   1.0000   1.0000   1.0000   1.0000   1.0000   1.0000
     1.0000   1.0597   1.0708   0.2134   0.0000   0.0000   0.0000

          k = 0.2500 0.3500 0.4500 (   318 PWs)   bands (ev):

   -32.5221 -18.7582 -18.5812 -18.5408 -18.4796 -11.1574 -10.9229 -10.7931
    -3.8937  -3.8602  -3.7453   4.1117   4.4648   5.1328   5.2141   5.5845
     5.9490   6.9994   7.2275   7.6301  12.5253  12.9773  13.1660

     occupation numbers 
     1.0000   1.0000   1.0000   1.0000   1.0000   1.0000   1.0000   1.0000
     1.0000   1.0000   1.0000   1.0000   1.0000   1.0000   1.0000   1.0000
     1.0000   1.0288   1.0807   0.2956   0.0000   0.0000   0.0000

          k = 0.2500 0.4500 0.4500 (   319 PWs)   bands (ev):

   -32.5296 -18.7348 -18.6394 -18.5503 -18.5031 -11.1652 -10.8215 -10.8061
    -3.9250  -3.8993  -3.7650   3.8838   4.3828   5.1027   5.1821   5.4384
     6.0032   7.0280   7.1138   7.8548  12.3148  13.0651  13.0957

     occupation numbers 
     1.0000   1.0000   1.0000   1.0000   1.0000   1.0000   1.0000   1.0000
     1.0000   1.0000   1.0000   1.0000   1.0000   1.0000   1.0000   1.0000
     1.0000   1.0371   1.0659   0.0306   0.0000   0.0000   0.0000

          k = 0.3500 0.3500 0.3500 (   314 PWs)   bands (ev):

   -32.4973 -18.7442 -18.5286 -18.5286 -18.4259 -10.9807 -10.7807 -10.7807
    -3.8842  -3.8842  -3.8065   3.9926   4.7319   5.1565   5.1565   5.6373
     5.6373   7.5727   7.5727   7.7980  12.4145  12.7532  12.7532

     occupation numbers 
     1.0000   1.0000   1.0000   1.0000   1.0000   1.0000   1.0000   1.0000
     1.0000   1.0000   1.0000   1.0000   1.0000   1.0000   1.0000   1.0000
     1.0000   0.4329   0.4329   0.0612   0.0000   0.0000   0.0000

          k = 0.3500 0.3500 0.4500 (   315 PWs)   bands (ev):

   -32.5052 -18.7340 -18.5800 -18.5633 -18.4451 -10.9181 -10.8265 -10.7406
    -3.9192  -3.8996  -3.8351   3.9835   4.6503   5.1071   5.1134   5.6103
     5.6391   7.5867   7.6111   7.7080  12.3388  12.6538  12.6568

     occupation numbers 
     1.0000   1.0000   1.0000   1.0000   1.0000   1.0000   1.0000   1.0000
     1.0000   1.0000   1.0000   1.0000   1.0000   1.0000   1.0000   1.0000
     1.0000   0.3974   0.3384   0.1553   0.0000   0.0000   0.0000

          k = 0.3500 0.4500 0.4500 (   320 PWs)   bands (ev):

   -32.5317 -18.7266 -18.6406 -18.5627 -18.5484 -11.1325 -10.8276 -10.7784
    -3.9628  -3.9457  -3.9043   3.5769   4.5629   4.9331   5.0675   5.4804
     5.6015   7.4738   7.5226   8.0008  12.1434  12.4608  12.4768

     occupation numbers 
     1.0000   1.0000   1.0000   1.0000   1.0000   1.0000   1.0000   1.0000
     1.0000   1.0000   1.0000   1.0000   1.0000   1.0000   1.0000   1.0000
     1.0000   0.7024   0.5683   0.0035   0.0000   0.0000   0.0000

          k = 0.4500 0.4500 0.4500 (   305 PWs)   bands (ev):

   -32.4423 -18.7204 -18.4705 -18.4223 -18.4223 -10.5544 -10.5210 -10.5210
    -3.9571  -3.9528  -3.9528   3.5337   5.0177   5.1912   5.1912   5.9691
     5.9691   8.2631   8.2631   8.3208  12.0670  12.1315  12.1315

     occupation numbers 
     1.0000   1.0000   1.0000   1.0000   1.0000   1.0000   1.0000   1.0000
     1.0000   1.0000   1.0000   1.0000   1.0000   1.0000   1.0000   1.0000
     1.0000   0.0000   0.0000   0.0000   0.0000   0.0000   0.0000

     the Fermi energy is     7.5854 ev

!    total energy              =    -617.51946978 Ry
     estimated scf accuracy    <       0.00000003 Ry
     smearing contrib. (-TS)   =      -0.00193597 Ry
     internal energy E=F+TS    =    -617.51753381 Ry

     The total energy is F=E-TS. E is the sum of the following terms:
     one-electron contribution =     -44.22464315 Ry
     hartree contribution      =      39.75257694 Ry
     xc contribution           =     -50.87649248 Ry
     ewald contribution        =    -166.45952529 Ry
     one-center paw contrib.   =    -395.70944983 Ry
      -> PAW hartree energy AE =      32.21251592 Ry
      -> PAW hartree energy PS =     -32.38465581 Ry
      -> PAW xc energy AE      =    -388.09560868 Ry
      -> PAW xc energy PS      =      19.74906865 Ry
      -> total E_H with PAW    =      39.58043705 Ry
      -> total E_XC with PAW   =    -419.22303252 Ry

     convergence has been achieved in   9 iterations

     Forces acting on atoms (cartesian axes, Ry/au):

     atom    1 type  1   force =     0.00000000    0.00000000    0.00000000
     atom    2 type  2   force =     0.00000000    0.00000000    0.00000000
     atom    3 type  3   force =     0.00000000    0.00000000    0.00000000
     atom    4 type  3   force =     0.00000000    0.00000000    0.00000000
     atom    5 type  3   force =     0.00000000    0.00000000    0.00000000
     The non-local contrib.  to forces
     atom    1 type  1   force =     0.00000000    0.00000000    0.00000000
     atom    2 type  2   force =     0.00000000    0.00000000    0.00000000
     atom    3 type  3   force =     0.00000000    0.00000000    0.00000000
     atom    4 type  3   force =     0.00000000    0.00000000    0.00000000
     atom    5 type  3   force =     0.00000000    0.00000000    0.00000000
     The ionic contribution  to forces
     atom    1 type  1   force =    -0.00000000   -0.00000000   -0.00000000
     atom    2 type  2   force =     0.00000000    0.00000000    0.00000000
     atom    3 type  3   force =     0.00000000    0.00000000   -0.00000000
     atom    4 type  3   force =     0.00000000   -0.00000000    0.00000000
     atom    5 type  3   force =    -0.00000000    0.00000000    0.00000000
     The local contribution  to forces
     atom    1 type  1   force =     0.00000000    0.00000000    0.00000000
     atom    2 type  2   force =     0.00000000    0.00000000    0.00000000
     atom    3 type  3   force =     0.00000000    0.00000000   -0.00000000
     atom    4 type  3   force =     0.00000000    0.00000000    0.00000000
     atom    5 type  3   force =     0.00000000    0.00000000    0.00000000
     The core correction contribution to forces
     atom    1 type  1   force =     0.00000000    0.00000000    0.00000000
     atom    2 type  2   force =    -0.00000000    0.00000000   -0.00000000
     atom    3 type  3   force =    -0.00000000   -0.00000000    0.00000000
     atom    4 type  3   force =    -0.00000000   -0.00000000   -0.00000000
     atom    5 type  3   force =    -0.00000000    0.00000000   -0.00000000
     The Hubbard contrib.    to forces
     atom    1 type  1   force =     0.00000000    0.00000000    0.00000000
     atom    2 type  2   force =     0.00000000    0.00000000    0.00000000
     atom    3 type  3   force =     0.00000000    0.00000000    0.00000000
     atom    4 type  3   force =     0.00000000    0.00000000    0.00000000
     atom    5 type  3   force =     0.00000000    0.00000000    0.00000000
     The SCF correction term to forces
     atom    1 type  1   force =     0.00000000   -0.00000000   -0.00000000
     atom    2 type  2   force =    -0.00000000    0.00000000    0.00000000
     atom    3 type  3   force =    -0.00000000   -0.00000000    0.00000000
     atom    4 type  3   force =    -0.00000000    0.00000000    0.00000000
     atom    5 type  3   force =    -0.00000000    0.00000000   -0.00000000

     Total force =     0.000000     Total SCF correction =     0.000000


     Computing stress (Cartesian axis) and pressure

          total   stress  (Ry/bohr**3)                   (kbar)     P=    -3105.89
  -0.02111338   0.00000000   0.00000000        -3105.89        0.00        0.00
   0.00000000  -0.02111338   0.00000000            0.00    -3105.89        0.00
   0.00000000   0.00000000  -0.02111338            0.00        0.00    -3105.89

     kinetic stress (kbar)  13292.42      0.00      0.00
                                0.00  13292.42      0.00
                                0.00      0.00  13292.42

     local   stress (kbar)  -5457.27     -0.00     -0.00
                               -0.00  -5457.27     -0.00
                               -0.00     -0.00  -5457.27

     nonloc. stress (kbar)   2567.86      0.00      0.00
                                0.00   2567.86      0.00
                                0.00      0.00   2567.86

     hartree stress (kbar)   3246.22     -0.00      0.00
                               -0.00   3246.22      0.00
                                0.00      0.00   3246.22

     exc-cor stress (kbar)    619.50      0.00     -0.00
                                0.00    619.50      0.00
                               -0.00      0.00    619.50

     corecor stress (kbar)  -3781.42     -0.00     -0.00
                               -0.00  -3781.42      0.00
                               -0.00      0.00  -3781.42

     ewald   stress (kbar) -13593.20      0.00     -0.00
                                0.00 -13593.20     -0.00
                               -0.00     -0.00 -13593.20

     hubbard stress (kbar)      0.00      0.00      0.00
                                0.00      0.00      0.00
                                0.00      0.00      0.00

     DFT-D   stress (kbar)      0.00      0.00      0.00
                                0.00      0.00      0.00
                                0.00      0.00      0.00

     XDM     stress (kbar)      0.00      0.00      0.00
                                0.00      0.00      0.00
                                0.00      0.00      0.00

     dft-nl  stress (kbar)      0.00      0.00      0.00
                                0.00      0.00      0.00
                                0.00      0.00      0.00

     TS-vdW  stress (kbar)      0.00      0.00      0.00
                                0.00      0.00      0.00
                                0.00      0.00      0.00

     MDB     stress (kbar)      0.00      0.00      0.00
                                0.00      0.00      0.00
                                0.00      0.00      0.00

     3D-RISM stress (kbar)      0.00      0.00      0.00
                                0.00      0.00      0.00
                                0.00      0.00      0.00


     Writing all to output data dir ./out/BCO.save/ :
     XML data file, charge density, pseudopotentials, collected wavefunctions

     init_run     :      0.32s CPU      0.34s WALL (       1 calls)
     electrons    :      2.35s CPU      2.55s WALL (       1 calls)
     forces       :      0.02s CPU      0.02s WALL (       1 calls)
     stress       :      0.08s CPU      0.08s WALL (       1 calls)

     Called by init_run:
     wfcinit      :      0.02s CPU      0.02s WALL (       1 calls)
     wfcinit:atom :      0.00s CPU      0.00s WALL (       9 calls)
     wfcinit:wfcr :      0.02s CPU      0.02s WALL (       9 calls)
     potinit      :      0.15s CPU      0.16s WALL (       1 calls)
     hinit0       :      0.14s CPU      0.14s WALL (       1 calls)

     Called by electrons:
     c_bands      :      1.07s CPU      1.14s WALL (       9 calls)
     sum_band     :      0.38s CPU      0.41s WALL (       9 calls)
     v_of_rho     :      0.05s CPU      0.05s WALL (      10 calls)
     v_h          :      0.00s CPU      0.00s WALL (      10 calls)
     v_xc         :      0.05s CPU      0.05s WALL (      12 calls)
     newd         :      0.09s CPU      0.09s WALL (      10 calls)
     PAW_pot      :      0.65s CPU      0.76s WALL (      10 calls)
     mix_rho      :      0.00s CPU      0.00s WALL (       9 calls)

     Called by c_bands:
     init_us_2    :      0.01s CPU      0.01s WALL (     189 calls)
     init_us_2:cp :      0.00s CPU      0.01s WALL (     189 calls)
     cegterg      :      0.80s CPU      0.86s WALL (      81 calls)

     Called by sum_band:
     sum_band:wei :      0.11s CPU      0.13s WALL (       9 calls)
     sum_band:loo :      0.07s CPU      0.07s WALL (       9 calls)
     sum_band:buf :      0.00s CPU      0.00s WALL (      81 calls)
     sum_band:ini :      0.00s CPU      0.00s WALL (      81 calls)
     sum_band:cal :      0.02s CPU      0.02s WALL (      81 calls)
     sum_band:bec :      0.00s CPU      0.00s WALL (      81 calls)
     addusdens    :      0.04s CPU      0.04s WALL (       9 calls)
                                        0.00s GPU  (       9 calls)
     addusd:skk   :      0.00s CPU      0.00s WALL (      27 calls)
                                        0.00s GPU  (      27 calls)

     Called by *egterg:
     cdiaghg      :      0.22s CPU      0.24s WALL (     343 calls)
     cegterg:over :      0.07s CPU      0.08s WALL (     262 calls)
     cegterg:upda :      0.01s CPU      0.02s WALL (     262 calls)
     cegterg:last :      0.04s CPU      0.04s WALL (     169 calls)
     h_psi        :      0.34s CPU      0.38s WALL (     352 calls)
     s_psi        :      0.04s CPU      0.04s WALL (     352 calls)
     g_psi        :      0.00s CPU      0.00s WALL (     262 calls)

     Called by h_psi:
     h_psi:calbec :      0.04s CPU      0.05s WALL (     352 calls)
     vloc_psi     :      0.26s CPU      0.28s WALL (     352 calls)
     add_vuspsi   :      0.04s CPU      0.05s WALL (     352 calls)

     General routines
     calbec       :      0.08s CPU      0.09s WALL (     478 calls)
     fft          :      0.08s CPU      0.08s WALL (     153 calls)
     ffts         :      0.11s CPU      0.11s WALL (      19 calls)
     fftw         :      0.28s CPU      0.30s WALL (   11669 calls)
     interpolate  :      0.10s CPU      0.10s WALL (      10 calls)

     Parallel routines

     PAW routines
     PAW_pot      :      0.65s CPU      0.76s WALL (      10 calls)
     PAW_symme    :      0.16s CPU      0.16s WALL (      19 calls)

     PWSCF        :      3.09s CPU      3.32s WALL


   This run was terminated on:  18:39: 2   7Apr2025            

=------------------------------------------------------------------------------=
   JOB DONE.
=------------------------------------------------------------------------------=
