
     Program PWSCF v.7.3 starts on  7Apr2025 at 18:19:56 

     This program is part of the open-source Quantum ESPRESSO suite
     for quantum simulation of materials; please cite
         "P. Giannozzi et al., J. Phys.:Condens. Matter 21 395502 (2009);
         "P. Giannozzi et al., J. Phys.:Condens. Matter 29 465901 (2017);
         "P. Giannozzi et al., J. Chem. Phys. 152 154105 (2020);
          URL http://www.quantum-espresso.org", 
     in publications or presentations arising from this work. More details at
     http://www.quantum-espresso.org/quote

     Parallel version (MPI), running on    20 processors

     MPI processes distributed on     1 nodes
     27052 MiB available memory on the printing compute node when the environment starts

     Waiting for input...
     Reading input from standard input

     Current dimensions of program PWSCF are:
     Max number of different atomic species (ntypx) = 10
     Max number of k-points (npk) = 120000
     Max angular momentum in pseudopotentials (lmaxx) =  4
     file Ba.pbesol-spn-kjpaw_psl.1.0.0.UPF: wavefunction(s)  5S 6S renormalized
     file O.pbesol-n-kjpaw_psl.0.1.UPF: wavefunction(s)  2P renormalized
     Message from routine setup:
     using ibrav=0 with symmetry is DISCOURAGED, use correct ibrav instead

     R & G space division:  proc/nbgrp/npool/nimage =      20
     Subspace diagonalization in iterative solution of the eigenvalue problem:
     a serial algorithm will be used


     Parallelization info
     --------------------
     sticks:   dense  smooth     PW     G-vecs:    dense   smooth      PW
     Min         169      67     19                 7447     1875     285
     Max         170      68     20                 7452     1880     288
     Sum        3389    1353    385               148981    37561    5743

     Using Slab Decomposition



     bravais-lattice index     =            0
     lattice parameter (alat)  =       8.4365  a.u.
     unit-cell volume          =     600.4730 (a.u.)^3
     number of atoms/cell      =            5
     number of atomic types    =            3
     number of electrons       =        38.00
     number of Kohn-Sham states=           23
     kinetic-energy cutoff     =      60.0000  Ry
     charge density cutoff     =     600.0000  Ry
     scf convergence threshold =      1.0E-07
     mixing beta               =       0.4000
     number of iterations used =            8  plain     mixing
     Exchange-correlation= SLA  PW   PSX  PSC
                           (   1   4  10   8   0   0   0)

     celldm(1)=   8.436542  celldm(2)=   0.000000  celldm(3)=   0.000000
     celldm(4)=   0.000000  celldm(5)=   0.000000  celldm(6)=   0.000000

     crystal axes: (cart. coord. in units of alat)
               a(1) = (   1.000000   0.000000   0.000000 )  
               a(2) = (   0.000000   1.000000   0.000000 )  
               a(3) = (   0.000000   0.000000   1.000000 )  

     reciprocal axes: (cart. coord. in units 2 pi/alat)
               b(1) = (  1.000000  0.000000  0.000000 )  
               b(2) = (  0.000000  1.000000  0.000000 )  
               b(3) = (  0.000000  0.000000  1.000000 )  


     PseudoPot. # 1 for Ba read from file:
     ./pseudo/Ba.pbesol-spn-kjpaw_psl.1.0.0.UPF
     MD5 check sum: f28c4a63d325c1a0d00fd3a4f19b8d73
     Pseudo is Projector augmented-wave + core cor, Zval = 10.0
     Generated using "atomic" code by A. Dal Corso  v.6.0 svn rev. 13079
     Shape of augmentation charge: PSQ
     Using radial grid of 1251 points,  7 beta functions with: 
                l(1) =   0
                l(2) =   0
                l(3) =   0
                l(4) =   1
                l(5) =   1
                l(6) =   2
                l(7) =   2
     Q(r) pseudized with 0 coefficients 


     PseudoPot. # 2 for Ca read from file:
     ./pseudo/ca_pbesol_v1.uspp.F.UPF
     MD5 check sum: 0533207b58cddeaa036efa5b63902087
     Pseudo is Ultrasoft + core correction, Zval = 10.0
     Generated by new atomic code, or converted to UPF format
     Using radial grid of  845 points,  6 beta functions with: 
                l(1) =   0
                l(2) =   0
                l(3) =   1
                l(4) =   1
                l(5) =   2
                l(6) =   2
     Q(r) pseudized with  8 coefficients,  rinner =    1.500   1.500   1.500
                                                       1.500   1.500

     PseudoPot. # 3 for O  read from file:
     ./pseudo/O.pbesol-n-kjpaw_psl.0.1.UPF
     MD5 check sum: 81d73d1479e654e5638b0319f0d6c2c7
     Pseudo is Projector augmented-wave + core cor, Zval =  6.0
     Generated using "atomic" code by A. Dal Corso  v.6.0 svn rev. 13079
     Shape of augmentation charge: BESSEL
     Using radial grid of 1095 points,  4 beta functions with: 
                l(1) =   0
                l(2) =   0
                l(3) =   1
                l(4) =   1
     Q(r) pseudized with 0 coefficients 


     atomic species   valence    mass     pseudopotential
     Ba               10.00   137.32700     Ba( 1.00)
     Ca               10.00    40.07800     Ca( 1.00)
     O                 6.00    15.99940     O ( 1.00)

     48 Sym. Ops., with inversion, found


                                    s                        frac. trans.

      isym =  1     identity                                     

 cryst.   s( 1) = (     1          0          0      )
                  (     0          1          0      )
                  (     0          0          1      )

 cart.    s( 1) = (  1.0000000  0.0000000  0.0000000 )
                  (  0.0000000  1.0000000  0.0000000 )
                  (  0.0000000  0.0000000  1.0000000 )


      isym =  2     180 deg rotation - cart. axis [0,0,1]        

 cryst.   s( 2) = (    -1          0          0      )
                  (     0         -1          0      )
                  (     0          0          1      )

 cart.    s( 2) = ( -1.0000000  0.0000000  0.0000000 )
                  (  0.0000000 -1.0000000  0.0000000 )
                  (  0.0000000  0.0000000  1.0000000 )


      isym =  3     180 deg rotation - cart. axis [0,1,0]        

 cryst.   s( 3) = (    -1          0          0      )
                  (     0          1          0      )
                  (     0          0         -1      )

 cart.    s( 3) = ( -1.0000000  0.0000000  0.0000000 )
                  (  0.0000000  1.0000000  0.0000000 )
                  (  0.0000000  0.0000000 -1.0000000 )


      isym =  4     180 deg rotation - cart. axis [1,0,0]        

 cryst.   s( 4) = (     1          0          0      )
                  (     0         -1          0      )
                  (     0          0         -1      )

 cart.    s( 4) = (  1.0000000  0.0000000  0.0000000 )
                  (  0.0000000 -1.0000000  0.0000000 )
                  (  0.0000000  0.0000000 -1.0000000 )


      isym =  5     180 deg rotation - cart. axis [1,1,0]        

 cryst.   s( 5) = (     0          1          0      )
                  (     1          0          0      )
                  (     0          0         -1      )

 cart.    s( 5) = (  0.0000000  1.0000000  0.0000000 )
                  (  1.0000000  0.0000000  0.0000000 )
                  (  0.0000000  0.0000000 -1.0000000 )


      isym =  6     180 deg rotation - cart. axis [1,-1,0]       

 cryst.   s( 6) = (     0         -1          0      )
                  (    -1          0          0      )
                  (     0          0         -1      )

 cart.    s( 6) = (  0.0000000 -1.0000000  0.0000000 )
                  ( -1.0000000  0.0000000  0.0000000 )
                  (  0.0000000  0.0000000 -1.0000000 )


      isym =  7      90 deg rotation - cart. axis [0,0,-1]       

 cryst.   s( 7) = (     0         -1          0      )
                  (     1          0          0      )
                  (     0          0          1      )

 cart.    s( 7) = (  0.0000000  1.0000000  0.0000000 )
                  ( -1.0000000  0.0000000  0.0000000 )
                  (  0.0000000  0.0000000  1.0000000 )


      isym =  8      90 deg rotation - cart. axis [0,0,1]        

 cryst.   s( 8) = (     0          1          0      )
                  (    -1          0          0      )
                  (     0          0          1      )

 cart.    s( 8) = (  0.0000000 -1.0000000  0.0000000 )
                  (  1.0000000  0.0000000  0.0000000 )
                  (  0.0000000  0.0000000  1.0000000 )


      isym =  9     180 deg rotation - cart. axis [1,0,1]        

 cryst.   s( 9) = (     0          0          1      )
                  (     0         -1          0      )
                  (     1          0          0      )

 cart.    s( 9) = (  0.0000000  0.0000000  1.0000000 )
                  (  0.0000000 -1.0000000  0.0000000 )
                  (  1.0000000  0.0000000  0.0000000 )


      isym = 10     180 deg rotation - cart. axis [-1,0,1]       

 cryst.   s(10) = (     0          0         -1      )
                  (     0         -1          0      )
                  (    -1          0          0      )

 cart.    s(10) = (  0.0000000  0.0000000 -1.0000000 )
                  (  0.0000000 -1.0000000  0.0000000 )
                  ( -1.0000000  0.0000000  0.0000000 )


      isym = 11      90 deg rotation - cart. axis [0,1,0]        

 cryst.   s(11) = (     0          0         -1      )
                  (     0          1          0      )
                  (     1          0          0      )

 cart.    s(11) = (  0.0000000  0.0000000  1.0000000 )
                  (  0.0000000  1.0000000  0.0000000 )
                  ( -1.0000000  0.0000000  0.0000000 )


      isym = 12      90 deg rotation - cart. axis [0,-1,0]       

 cryst.   s(12) = (     0          0          1      )
                  (     0          1          0      )
                  (    -1          0          0      )

 cart.    s(12) = (  0.0000000  0.0000000 -1.0000000 )
                  (  0.0000000  1.0000000  0.0000000 )
                  (  1.0000000  0.0000000  0.0000000 )


      isym = 13     180 deg rotation - cart. axis [0,1,1]        

 cryst.   s(13) = (    -1          0          0      )
                  (     0          0          1      )
                  (     0          1          0      )

 cart.    s(13) = ( -1.0000000  0.0000000  0.0000000 )
                  (  0.0000000  0.0000000  1.0000000 )
                  (  0.0000000  1.0000000  0.0000000 )


      isym = 14     180 deg rotation - cart. axis [0,1,-1]       

 cryst.   s(14) = (    -1          0          0      )
                  (     0          0         -1      )
                  (     0         -1          0      )

 cart.    s(14) = ( -1.0000000  0.0000000  0.0000000 )
                  (  0.0000000  0.0000000 -1.0000000 )
                  (  0.0000000 -1.0000000  0.0000000 )


      isym = 15      90 deg rotation - cart. axis [-1,0,0]       

 cryst.   s(15) = (     1          0          0      )
                  (     0          0         -1      )
                  (     0          1          0      )

 cart.    s(15) = (  1.0000000  0.0000000  0.0000000 )
                  (  0.0000000  0.0000000  1.0000000 )
                  (  0.0000000 -1.0000000  0.0000000 )


      isym = 16      90 deg rotation - cart. axis [1,0,0]        

 cryst.   s(16) = (     1          0          0      )
                  (     0          0          1      )
                  (     0         -1          0      )

 cart.    s(16) = (  1.0000000  0.0000000  0.0000000 )
                  (  0.0000000  0.0000000 -1.0000000 )
                  (  0.0000000  1.0000000  0.0000000 )


      isym = 17     120 deg rotation - cart. axis [-1,-1,-1]     

 cryst.   s(17) = (     0          0          1      )
                  (     1          0          0      )
                  (     0          1          0      )

 cart.    s(17) = (  0.0000000  1.0000000  0.0000000 )
                  (  0.0000000  0.0000000  1.0000000 )
                  (  1.0000000  0.0000000  0.0000000 )


      isym = 18     120 deg rotation - cart. axis [-1,1,1]       

 cryst.   s(18) = (     0          0         -1      )
                  (    -1          0          0      )
                  (     0          1          0      )

 cart.    s(18) = (  0.0000000 -1.0000000  0.0000000 )
                  (  0.0000000  0.0000000  1.0000000 )
                  ( -1.0000000  0.0000000  0.0000000 )


      isym = 19     120 deg rotation - cart. axis [1,1,-1]       

 cryst.   s(19) = (     0          0         -1      )
                  (     1          0          0      )
                  (     0         -1          0      )

 cart.    s(19) = (  0.0000000  1.0000000  0.0000000 )
                  (  0.0000000  0.0000000 -1.0000000 )
                  ( -1.0000000  0.0000000  0.0000000 )


      isym = 20     120 deg rotation - cart. axis [1,-1,1]       

 cryst.   s(20) = (     0          0          1      )
                  (    -1          0          0      )
                  (     0         -1          0      )

 cart.    s(20) = (  0.0000000 -1.0000000  0.0000000 )
                  (  0.0000000  0.0000000 -1.0000000 )
                  (  1.0000000  0.0000000  0.0000000 )


      isym = 21     120 deg rotation - cart. axis [1,1,1]        

 cryst.   s(21) = (     0          1          0      )
                  (     0          0          1      )
                  (     1          0          0      )

 cart.    s(21) = (  0.0000000  0.0000000  1.0000000 )
                  (  1.0000000  0.0000000  0.0000000 )
                  (  0.0000000  1.0000000  0.0000000 )


      isym = 22     120 deg rotation - cart. axis [-1,1,-1]      

 cryst.   s(22) = (     0         -1          0      )
                  (     0          0         -1      )
                  (     1          0          0      )

 cart.    s(22) = (  0.0000000  0.0000000  1.0000000 )
                  ( -1.0000000  0.0000000  0.0000000 )
                  (  0.0000000 -1.0000000  0.0000000 )


      isym = 23     120 deg rotation - cart. axis [1,-1,-1]      

 cryst.   s(23) = (     0         -1          0      )
                  (     0          0          1      )
                  (    -1          0          0      )

 cart.    s(23) = (  0.0000000  0.0000000 -1.0000000 )
                  ( -1.0000000  0.0000000  0.0000000 )
                  (  0.0000000  1.0000000  0.0000000 )


      isym = 24     120 deg rotation - cart. axis [-1,-1,1]      

 cryst.   s(24) = (     0          1          0      )
                  (     0          0         -1      )
                  (    -1          0          0      )

 cart.    s(24) = (  0.0000000  0.0000000 -1.0000000 )
                  (  1.0000000  0.0000000  0.0000000 )
                  (  0.0000000 -1.0000000  0.0000000 )


      isym = 25     inversion                                    

 cryst.   s(25) = (    -1          0          0      )
                  (     0         -1          0      )
                  (     0          0         -1      )

 cart.    s(25) = ( -1.0000000  0.0000000  0.0000000 )
                  (  0.0000000 -1.0000000  0.0000000 )
                  (  0.0000000  0.0000000 -1.0000000 )


      isym = 26     inv. 180 deg rotation - cart. axis [0,0,1]   

 cryst.   s(26) = (     1          0          0      )
                  (     0          1          0      )
                  (     0          0         -1      )

 cart.    s(26) = (  1.0000000  0.0000000  0.0000000 )
                  (  0.0000000  1.0000000  0.0000000 )
                  (  0.0000000  0.0000000 -1.0000000 )


      isym = 27     inv. 180 deg rotation - cart. axis [0,1,0]   

 cryst.   s(27) = (     1          0          0      )
                  (     0         -1          0      )
                  (     0          0          1      )

 cart.    s(27) = (  1.0000000  0.0000000  0.0000000 )
                  (  0.0000000 -1.0000000  0.0000000 )
                  (  0.0000000  0.0000000  1.0000000 )


      isym = 28     inv. 180 deg rotation - cart. axis [1,0,0]   

 cryst.   s(28) = (    -1          0          0      )
                  (     0          1          0      )
                  (     0          0          1      )

 cart.    s(28) = ( -1.0000000  0.0000000  0.0000000 )
                  (  0.0000000  1.0000000  0.0000000 )
                  (  0.0000000  0.0000000  1.0000000 )


      isym = 29     inv. 180 deg rotation - cart. axis [1,1,0]   

 cryst.   s(29) = (     0         -1          0      )
                  (    -1          0          0      )
                  (     0          0          1      )

 cart.    s(29) = (  0.0000000 -1.0000000  0.0000000 )
                  ( -1.0000000  0.0000000  0.0000000 )
                  (  0.0000000  0.0000000  1.0000000 )


      isym = 30     inv. 180 deg rotation - cart. axis [1,-1,0]  

 cryst.   s(30) = (     0          1          0      )
                  (     1          0          0      )
                  (     0          0          1      )

 cart.    s(30) = (  0.0000000  1.0000000  0.0000000 )
                  (  1.0000000  0.0000000  0.0000000 )
                  (  0.0000000  0.0000000  1.0000000 )


      isym = 31     inv.  90 deg rotation - cart. axis [0,0,-1]  

 cryst.   s(31) = (     0          1          0      )
                  (    -1          0          0      )
                  (     0          0         -1      )

 cart.    s(31) = (  0.0000000 -1.0000000  0.0000000 )
                  (  1.0000000  0.0000000  0.0000000 )
                  (  0.0000000  0.0000000 -1.0000000 )


      isym = 32     inv.  90 deg rotation - cart. axis [0,0,1]   

 cryst.   s(32) = (     0         -1          0      )
                  (     1          0          0      )
                  (     0          0         -1      )

 cart.    s(32) = (  0.0000000  1.0000000  0.0000000 )
                  ( -1.0000000  0.0000000  0.0000000 )
                  (  0.0000000  0.0000000 -1.0000000 )


      isym = 33     inv. 180 deg rotation - cart. axis [1,0,1]   

 cryst.   s(33) = (     0          0         -1      )
                  (     0          1          0      )
                  (    -1          0          0      )

 cart.    s(33) = (  0.0000000  0.0000000 -1.0000000 )
                  (  0.0000000  1.0000000  0.0000000 )
                  ( -1.0000000  0.0000000  0.0000000 )


      isym = 34     inv. 180 deg rotation - cart. axis [-1,0,1]  

 cryst.   s(34) = (     0          0          1      )
                  (     0          1          0      )
                  (     1          0          0      )

 cart.    s(34) = (  0.0000000  0.0000000  1.0000000 )
                  (  0.0000000  1.0000000  0.0000000 )
                  (  1.0000000  0.0000000  0.0000000 )


      isym = 35     inv.  90 deg rotation - cart. axis [0,1,0]   

 cryst.   s(35) = (     0          0          1      )
                  (     0         -1          0      )
                  (    -1          0          0      )

 cart.    s(35) = (  0.0000000  0.0000000 -1.0000000 )
                  (  0.0000000 -1.0000000  0.0000000 )
                  (  1.0000000  0.0000000  0.0000000 )


      isym = 36     inv.  90 deg rotation - cart. axis [0,-1,0]  

 cryst.   s(36) = (     0          0         -1      )
                  (     0         -1          0      )
                  (     1          0          0      )

 cart.    s(36) = (  0.0000000  0.0000000  1.0000000 )
                  (  0.0000000 -1.0000000  0.0000000 )
                  ( -1.0000000  0.0000000  0.0000000 )


      isym = 37     inv. 180 deg rotation - cart. axis [0,1,1]   

 cryst.   s(37) = (     1          0          0      )
                  (     0          0         -1      )
                  (     0         -1          0      )

 cart.    s(37) = (  1.0000000  0.0000000  0.0000000 )
                  (  0.0000000  0.0000000 -1.0000000 )
                  (  0.0000000 -1.0000000  0.0000000 )


      isym = 38     inv. 180 deg rotation - cart. axis [0,1,-1]  

 cryst.   s(38) = (     1          0          0      )
                  (     0          0          1      )
                  (     0          1          0      )

 cart.    s(38) = (  1.0000000  0.0000000  0.0000000 )
                  (  0.0000000  0.0000000  1.0000000 )
                  (  0.0000000  1.0000000  0.0000000 )


      isym = 39     inv.  90 deg rotation - cart. axis [-1,0,0]  

 cryst.   s(39) = (    -1          0          0      )
                  (     0          0          1      )
                  (     0         -1          0      )

 cart.    s(39) = ( -1.0000000  0.0000000  0.0000000 )
                  (  0.0000000  0.0000000 -1.0000000 )
                  (  0.0000000  1.0000000  0.0000000 )


      isym = 40     inv.  90 deg rotation - cart. axis [1,0,0]   

 cryst.   s(40) = (    -1          0          0      )
                  (     0          0         -1      )
                  (     0          1          0      )

 cart.    s(40) = ( -1.0000000  0.0000000  0.0000000 )
                  (  0.0000000  0.0000000  1.0000000 )
                  (  0.0000000 -1.0000000  0.0000000 )


      isym = 41     inv. 120 deg rotation - cart. axis [-1,-1,-1]

 cryst.   s(41) = (     0          0         -1      )
                  (    -1          0          0      )
                  (     0         -1          0      )

 cart.    s(41) = (  0.0000000 -1.0000000  0.0000000 )
                  (  0.0000000  0.0000000 -1.0000000 )
                  ( -1.0000000  0.0000000  0.0000000 )


      isym = 42     inv. 120 deg rotation - cart. axis [-1,1,1]  

 cryst.   s(42) = (     0          0          1      )
                  (     1          0          0      )
                  (     0         -1          0      )

 cart.    s(42) = (  0.0000000  1.0000000  0.0000000 )
                  (  0.0000000  0.0000000 -1.0000000 )
                  (  1.0000000  0.0000000  0.0000000 )


      isym = 43     inv. 120 deg rotation - cart. axis [1,1,-1]  

 cryst.   s(43) = (     0          0          1      )
                  (    -1          0          0      )
                  (     0          1          0      )

 cart.    s(43) = (  0.0000000 -1.0000000  0.0000000 )
                  (  0.0000000  0.0000000  1.0000000 )
                  (  1.0000000  0.0000000  0.0000000 )


      isym = 44     inv. 120 deg rotation - cart. axis [1,-1,1]  

 cryst.   s(44) = (     0          0         -1      )
                  (     1          0          0      )
                  (     0          1          0      )

 cart.    s(44) = (  0.0000000  1.0000000  0.0000000 )
                  (  0.0000000  0.0000000  1.0000000 )
                  ( -1.0000000  0.0000000  0.0000000 )


      isym = 45     inv. 120 deg rotation - cart. axis [1,1,1]   

 cryst.   s(45) = (     0         -1          0      )
                  (     0          0         -1      )
                  (    -1          0          0      )

 cart.    s(45) = (  0.0000000  0.0000000 -1.0000000 )
                  ( -1.0000000  0.0000000  0.0000000 )
                  (  0.0000000 -1.0000000  0.0000000 )


      isym = 46     inv. 120 deg rotation - cart. axis [-1,1,-1] 

 cryst.   s(46) = (     0          1          0      )
                  (     0          0          1      )
                  (    -1          0          0      )

 cart.    s(46) = (  0.0000000  0.0000000 -1.0000000 )
                  (  1.0000000  0.0000000  0.0000000 )
                  (  0.0000000  1.0000000  0.0000000 )


      isym = 47     inv. 120 deg rotation - cart. axis [1,-1,-1] 

 cryst.   s(47) = (     0          1          0      )
                  (     0          0         -1      )
                  (     1          0          0      )

 cart.    s(47) = (  0.0000000  0.0000000  1.0000000 )
                  (  1.0000000  0.0000000  0.0000000 )
                  (  0.0000000 -1.0000000  0.0000000 )


      isym = 48     inv. 120 deg rotation - cart. axis [-1,-1,1] 

 cryst.   s(48) = (     0         -1          0      )
                  (     0          0          1      )
                  (     1          0          0      )

 cart.    s(48) = (  0.0000000  0.0000000  1.0000000 )
                  ( -1.0000000  0.0000000  0.0000000 )
                  (  0.0000000  1.0000000  0.0000000 )


   Cartesian axes

     site n.     atom                  positions (alat units)
         1        Ba     tau(   1) = (   0.0000000   0.0000000   0.0000000  )
         2        Ca     tau(   2) = (   0.5000000   0.5000000   0.5000000  )
         3        O      tau(   3) = (   0.5000000   0.5000000   0.0000000  )
         4        O      tau(   4) = (   0.5000000   0.0000000   0.5000000  )
         5        O      tau(   5) = (   0.0000000   0.5000000   0.5000000  )

   Crystallographic axes

     site n.     atom                  positions (cryst. coord.)
         1        Ba     tau(   1) = (  0.0000000  0.0000000  0.0000000  )
         2        Ca     tau(   2) = (  0.5000000  0.5000000  0.5000000  )
         3        O      tau(   3) = (  0.5000000  0.5000000  0.0000000  )
         4        O      tau(   4) = (  0.5000000  0.0000000  0.5000000  )
         5        O      tau(   5) = (  0.0000000  0.5000000  0.5000000  )

     number of k points=    35  Marzari-Vanderbilt smearing, width (Ry)=  0.0200
                       cart. coord. in units 2pi/alat
        k(    1) = (   0.0500000   0.0500000   0.0500000), wk =   0.0160000
        k(    2) = (   0.0500000   0.0500000   0.1500000), wk =   0.0480000
        k(    3) = (   0.0500000   0.0500000   0.2500000), wk =   0.0480000
        k(    4) = (   0.0500000   0.0500000   0.3500000), wk =   0.0480000
        k(    5) = (   0.0500000   0.0500000   0.4500000), wk =   0.0480000
        k(    6) = (   0.0500000   0.1500000   0.1500000), wk =   0.0480000
        k(    7) = (   0.0500000   0.1500000   0.2500000), wk =   0.0960000
        k(    8) = (   0.0500000   0.1500000   0.3500000), wk =   0.0960000
        k(    9) = (   0.0500000   0.1500000   0.4500000), wk =   0.0960000
        k(   10) = (   0.0500000   0.2500000   0.2500000), wk =   0.0480000
        k(   11) = (   0.0500000   0.2500000   0.3500000), wk =   0.0960000
        k(   12) = (   0.0500000   0.2500000   0.4500000), wk =   0.0960000
        k(   13) = (   0.0500000   0.3500000   0.3500000), wk =   0.0480000
        k(   14) = (   0.0500000   0.3500000   0.4500000), wk =   0.0960000
        k(   15) = (   0.0500000   0.4500000   0.4500000), wk =   0.0480000
        k(   16) = (   0.1500000   0.1500000   0.1500000), wk =   0.0160000
        k(   17) = (   0.1500000   0.1500000   0.2500000), wk =   0.0480000
        k(   18) = (   0.1500000   0.1500000   0.3500000), wk =   0.0480000
        k(   19) = (   0.1500000   0.1500000   0.4500000), wk =   0.0480000
        k(   20) = (   0.1500000   0.2500000   0.2500000), wk =   0.0480000
        k(   21) = (   0.1500000   0.2500000   0.3500000), wk =   0.0960000
        k(   22) = (   0.1500000   0.2500000   0.4500000), wk =   0.0960000
        k(   23) = (   0.1500000   0.3500000   0.3500000), wk =   0.0480000
        k(   24) = (   0.1500000   0.3500000   0.4500000), wk =   0.0960000
        k(   25) = (   0.1500000   0.4500000   0.4500000), wk =   0.0480000
        k(   26) = (   0.2500000   0.2500000   0.2500000), wk =   0.0160000
        k(   27) = (   0.2500000   0.2500000   0.3500000), wk =   0.0480000
        k(   28) = (   0.2500000   0.2500000   0.4500000), wk =   0.0480000
        k(   29) = (   0.2500000   0.3500000   0.3500000), wk =   0.0480000
        k(   30) = (   0.2500000   0.3500000   0.4500000), wk =   0.0960000
        k(   31) = (   0.2500000   0.4500000   0.4500000), wk =   0.0480000
        k(   32) = (   0.3500000   0.3500000   0.3500000), wk =   0.0160000
        k(   33) = (   0.3500000   0.3500000   0.4500000), wk =   0.0480000
        k(   34) = (   0.3500000   0.4500000   0.4500000), wk =   0.0480000
        k(   35) = (   0.4500000   0.4500000   0.4500000), wk =   0.0160000

                       cryst. coord.
        k(    1) = (   0.0500000   0.0500000   0.0500000), wk =   0.0160000
        k(    2) = (   0.0500000   0.0500000   0.1500000), wk =   0.0480000
        k(    3) = (   0.0500000   0.0500000   0.2500000), wk =   0.0480000
        k(    4) = (   0.0500000   0.0500000   0.3500000), wk =   0.0480000
        k(    5) = (   0.0500000   0.0500000   0.4500000), wk =   0.0480000
        k(    6) = (   0.0500000   0.1500000   0.1500000), wk =   0.0480000
        k(    7) = (   0.0500000   0.1500000   0.2500000), wk =   0.0960000
        k(    8) = (   0.0500000   0.1500000   0.3500000), wk =   0.0960000
        k(    9) = (   0.0500000   0.1500000   0.4500000), wk =   0.0960000
        k(   10) = (   0.0500000   0.2500000   0.2500000), wk =   0.0480000
        k(   11) = (   0.0500000   0.2500000   0.3500000), wk =   0.0960000
        k(   12) = (   0.0500000   0.2500000   0.4500000), wk =   0.0960000
        k(   13) = (   0.0500000   0.3500000   0.3500000), wk =   0.0480000
        k(   14) = (   0.0500000   0.3500000   0.4500000), wk =   0.0960000
        k(   15) = (   0.0500000   0.4500000   0.4500000), wk =   0.0480000
        k(   16) = (   0.1500000   0.1500000   0.1500000), wk =   0.0160000
        k(   17) = (   0.1500000   0.1500000   0.2500000), wk =   0.0480000
        k(   18) = (   0.1500000   0.1500000   0.3500000), wk =   0.0480000
        k(   19) = (   0.1500000   0.1500000   0.4500000), wk =   0.0480000
        k(   20) = (   0.1500000   0.2500000   0.2500000), wk =   0.0480000
        k(   21) = (   0.1500000   0.2500000   0.3500000), wk =   0.0960000
        k(   22) = (   0.1500000   0.2500000   0.4500000), wk =   0.0960000
        k(   23) = (   0.1500000   0.3500000   0.3500000), wk =   0.0480000
        k(   24) = (   0.1500000   0.3500000   0.4500000), wk =   0.0960000
        k(   25) = (   0.1500000   0.4500000   0.4500000), wk =   0.0480000
        k(   26) = (   0.2500000   0.2500000   0.2500000), wk =   0.0160000
        k(   27) = (   0.2500000   0.2500000   0.3500000), wk =   0.0480000
        k(   28) = (   0.2500000   0.2500000   0.4500000), wk =   0.0480000
        k(   29) = (   0.2500000   0.3500000   0.3500000), wk =   0.0480000
        k(   30) = (   0.2500000   0.3500000   0.4500000), wk =   0.0960000
        k(   31) = (   0.2500000   0.4500000   0.4500000), wk =   0.0480000
        k(   32) = (   0.3500000   0.3500000   0.3500000), wk =   0.0160000
        k(   33) = (   0.3500000   0.3500000   0.4500000), wk =   0.0480000
        k(   34) = (   0.3500000   0.4500000   0.4500000), wk =   0.0480000
        k(   35) = (   0.4500000   0.4500000   0.4500000), wk =   0.0160000

     Dense  grid:   148981 G-vectors     FFT dimensions: (  72,  72,  72)

     Smooth grid:    37561 G-vectors     FFT dimensions: (  45,  45,  45)

     Dynamical RAM for                 wfc:       0.08 MB

     Dynamical RAM for     wfc (w. buffer):       2.97 MB

     Dynamical RAM for           str. fact:       0.34 MB

     Dynamical RAM for           local pot:       0.00 MB

     Dynamical RAM for          nlocal pot:       0.22 MB

     Dynamical RAM for                qrad:       7.86 MB

     Dynamical RAM for          rho,v,vnew:       0.82 MB

     Dynamical RAM for               rhoin:       0.27 MB

     Dynamical RAM for            rho*nmix:       1.82 MB

     Dynamical RAM for           G-vectors:       0.44 MB

     Dynamical RAM for          h,s,v(r/c):       0.10 MB

     Dynamical RAM for          <psi|beta>:       0.02 MB

     Dynamical RAM for                 psi:       0.16 MB

     Dynamical RAM for                hpsi:       0.16 MB

     Dynamical RAM for                spsi:       0.16 MB

     Dynamical RAM for      wfcinit/wfcrot:       0.21 MB

     Dynamical RAM for           addusdens:      23.65 MB

     Dynamical RAM for          addusforce:      24.18 MB

     Dynamical RAM for         addusstress:      25.02 MB

     Estimated static dynamical RAM per process >      14.16 MB

     Estimated max dynamical RAM per process >      41.00 MB

     Estimated total dynamical RAM >     819.97 MB

     Initial potential from superposition of free atoms

     starting charge      37.9791, renormalised to      38.0000
     Starting wfcs are   27 randomized atomic wfcs
     Checking if some PAW data can be deallocated... 
       PAW data deallocated on   16 nodes for type:  1
       PAW data deallocated on    8 nodes for type:  3

     total cpu time spent up to now is        2.3 secs

     Self-consistent Calculation

     iteration #  1     ecut=    60.00 Ry     beta= 0.40
     Davidson diagonalization with overlap

---- Real-time Memory Report at c_bands before calling an iterative solver
            75 MiB given to the printing process from OS
             0 MiB allocation reported by mallinfo(arena+hblkhd)
         25939 MiB available memory on the node where the printing process lives
------------------
     ethr =  1.00E-02,  avg # of iterations =  3.0

     total cpu time spent up to now is        4.8 secs

     total energy              =    -628.10413143 Ry
     estimated scf accuracy    <       0.66603070 Ry

     iteration #  2     ecut=    60.00 Ry     beta= 0.40
     Davidson diagonalization with overlap

---- Real-time Memory Report at c_bands before calling an iterative solver
            80 MiB given to the printing process from OS
             0 MiB allocation reported by mallinfo(arena+hblkhd)
         25919 MiB available memory on the node where the printing process lives
------------------
     ethr =  1.75E-03,  avg # of iterations =  4.9

     total cpu time spent up to now is        6.6 secs

     total energy              =    -628.28716430 Ry
     estimated scf accuracy    <       0.05625686 Ry

     iteration #  3     ecut=    60.00 Ry     beta= 0.40
     Davidson diagonalization with overlap

---- Real-time Memory Report at c_bands before calling an iterative solver
            80 MiB given to the printing process from OS
             0 MiB allocation reported by mallinfo(arena+hblkhd)
         25919 MiB available memory on the node where the printing process lives
------------------
     c_bands:  1 eigenvalues not converged
     ethr =  1.48E-04,  avg # of iterations = 11.1

     total cpu time spent up to now is        8.6 secs

     total energy              =    -628.29391492 Ry
     estimated scf accuracy    <       0.00933884 Ry

     iteration #  4     ecut=    60.00 Ry     beta= 0.40
     Davidson diagonalization with overlap

---- Real-time Memory Report at c_bands before calling an iterative solver
            80 MiB given to the printing process from OS
             0 MiB allocation reported by mallinfo(arena+hblkhd)
         25931 MiB available memory on the node where the printing process lives
------------------
     ethr =  2.46E-05,  avg # of iterations =  4.3

     total cpu time spent up to now is       10.3 secs

     total energy              =    -628.29539928 Ry
     estimated scf accuracy    <       0.00204406 Ry

     iteration #  5     ecut=    60.00 Ry     beta= 0.40
     Davidson diagonalization with overlap

---- Real-time Memory Report at c_bands before calling an iterative solver
            80 MiB given to the printing process from OS
             0 MiB allocation reported by mallinfo(arena+hblkhd)
         25927 MiB available memory on the node where the printing process lives
------------------
     ethr =  5.38E-06,  avg # of iterations =  5.7

     total cpu time spent up to now is       11.9 secs

     total energy              =    -628.29576800 Ry
     estimated scf accuracy    <       0.00014400 Ry

     iteration #  6     ecut=    60.00 Ry     beta= 0.40
     Davidson diagonalization with overlap

---- Real-time Memory Report at c_bands before calling an iterative solver
            80 MiB given to the printing process from OS
             0 MiB allocation reported by mallinfo(arena+hblkhd)
         25923 MiB available memory on the node where the printing process lives
------------------
     ethr =  3.79E-07,  avg # of iterations =  2.0

     total cpu time spent up to now is       13.8 secs

     total energy              =    -628.29578925 Ry
     estimated scf accuracy    <       0.00001940 Ry

     iteration #  7     ecut=    60.00 Ry     beta= 0.40
     Davidson diagonalization with overlap

---- Real-time Memory Report at c_bands before calling an iterative solver
            80 MiB given to the printing process from OS
             0 MiB allocation reported by mallinfo(arena+hblkhd)
         25927 MiB available memory on the node where the printing process lives
------------------
     ethr =  5.11E-08,  avg # of iterations =  4.3

     total cpu time spent up to now is       15.6 secs

     total energy              =    -628.29578075 Ry
     estimated scf accuracy    <       0.00005298 Ry

     iteration #  8     ecut=    60.00 Ry     beta= 0.40
     Davidson diagonalization with overlap

---- Real-time Memory Report at c_bands before calling an iterative solver
            80 MiB given to the printing process from OS
             0 MiB allocation reported by mallinfo(arena+hblkhd)
         25947 MiB available memory on the node where the printing process lives
------------------
     ethr =  5.11E-08,  avg # of iterations =  3.9

     total cpu time spent up to now is       17.4 secs

     total energy              =    -628.29579832 Ry
     estimated scf accuracy    <       0.00001070 Ry

     iteration #  9     ecut=    60.00 Ry     beta= 0.40
     Davidson diagonalization with overlap

---- Real-time Memory Report at c_bands before calling an iterative solver
            80 MiB given to the printing process from OS
             0 MiB allocation reported by mallinfo(arena+hblkhd)
         25992 MiB available memory on the node where the printing process lives
------------------
     ethr =  2.82E-08,  avg # of iterations =  1.3

     total cpu time spent up to now is       18.6 secs

     total energy              =    -628.29579789 Ry
     estimated scf accuracy    <       0.00000418 Ry

     iteration # 10     ecut=    60.00 Ry     beta= 0.40
     Davidson diagonalization with overlap

---- Real-time Memory Report at c_bands before calling an iterative solver
            80 MiB given to the printing process from OS
             0 MiB allocation reported by mallinfo(arena+hblkhd)
         25986 MiB available memory on the node where the printing process lives
------------------
     ethr =  1.10E-08,  avg # of iterations =  2.0

     total cpu time spent up to now is       20.0 secs

     total energy              =    -628.29579771 Ry
     estimated scf accuracy    <       0.00000120 Ry

     iteration # 11     ecut=    60.00 Ry     beta= 0.40
     Davidson diagonalization with overlap

---- Real-time Memory Report at c_bands before calling an iterative solver
            80 MiB given to the printing process from OS
             0 MiB allocation reported by mallinfo(arena+hblkhd)
         26018 MiB available memory on the node where the printing process lives
------------------
     ethr =  3.15E-09,  avg # of iterations =  2.1

     total cpu time spent up to now is       21.9 secs

     End of self-consistent calculation

          k = 0.0500 0.0500 0.0500 (  4716 PWs)   bands (ev):

   -30.3720 -20.0262 -11.7435 -11.7422 -11.7422  -9.8920  -9.5707  -9.5707
    -5.0740  -5.0740  -5.0615   4.4998   4.5681   4.5681   5.0089   5.0089
     5.0795   5.6811   5.7310   5.7310  10.3644  10.3645  10.7059

     occupation numbers 
     1.0000   1.0000   1.0000   1.0000   1.0000   1.0000   1.0000   1.0000
     1.0000   1.0000   1.0000   1.0000   1.0002   1.0002   1.0592   1.0592
     1.0796   0.0871   0.0496   0.0496   0.0000   0.0000   0.0000

          k = 0.0500 0.0500 0.1500 (  4734 PWs)   bands (ev):

   -30.3713 -20.0232 -11.9018 -11.7421 -11.7407  -9.8532  -9.5684  -9.4010
    -5.0754  -5.0689  -5.0446   4.3817   4.5466   4.5632   4.8716   4.9425
     5.0603   5.4137   5.6849   5.7009  10.5747  10.6008  11.0578

     occupation numbers 
     1.0000   1.0000   1.0000   1.0000   1.0000   1.0000   1.0000   1.0000
     1.0000   1.0000   1.0000   1.0000   1.0001   1.0002   1.0188   1.0369
     1.0752   0.6343   0.0836   0.0701   0.0000   0.0000   0.0000

          k = 0.0500 0.0500 0.2500 (  4721 PWs)   bands (ev):

   -30.3701 -20.0182 -12.1111 -11.7407 -11.7383  -9.8593  -9.5647  -9.1020
    -5.0668  -5.0606  -5.0281   4.2300   4.5034   4.5088   4.7123   4.8129
     4.9889   5.0325   5.6366   5.6545  10.9270  10.9793  11.7210

     occupation numbers 
     1.0000   1.0000   1.0000   1.0000   1.0000   1.0000   1.0000   1.0000
     1.0000   1.0000   1.0000   1.0000   1.0000   1.0001   1.0023   1.0095
     1.0522   1.0670   0.1366   0.1147   0.0000   0.0000   0.0000

          k = 0.0500 0.0500 0.3500 (  4721 PWs)   bands (ev):

   -30.3689 -20.0132 -12.2844 -11.7392 -11.7359  -9.8835  -9.5610  -8.8158
    -5.0523  -5.0520  -5.0178   4.0925   4.4200   4.4475   4.5219   4.5824
     4.8758   4.9158   5.5904   5.6106  11.3001  11.3732  12.2701

     occupation numbers 
     1.0000   1.0000   1.0000   1.0000   1.0000   1.0000   1.0000   1.0000
     1.0000   1.0000   1.0000   1.0000   1.0000   1.0000   1.0001   1.0002
     1.0197   1.0292   0.2070   0.1736   0.0000   0.0000   0.0000

          k = 0.0500 0.0500 0.4500 (  4724 PWs)   bands (ev):

   -30.3682 -20.0101 -12.3794 -11.7383 -11.7344  -9.9010  -9.5586  -8.6457
    -5.0471  -5.0386  -5.0158   4.0069   4.2779   4.3853   4.4059   4.5117
     4.8406   4.8744   5.5625   5.5848  11.5449  11.6329  12.5857

     occupation numbers 
     1.0000   1.0000   1.0000   1.0000   1.0000   1.0000   1.0000   1.0000
     1.0000   1.0000   1.0000   1.0000   1.0000   1.0000   1.0000   1.0001
     1.0133   1.0194   0.2593   0.2168   0.0000   0.0000   0.0000

          k = 0.0500 0.1500 0.1500 (  4723 PWs)   bands (ev):

   -30.3705 -20.0201 -11.9038 -11.8998 -11.7402  -9.7879  -9.4497  -9.3688
    -5.0885  -5.0663  -5.0242   4.2360   4.5333   4.5937   4.7147   4.8651
     5.1135   5.2949   5.5424   5.6612  10.7434  10.8427  11.3030

     occupation numbers 
     1.0000   1.0000   1.0000   1.0000   1.0000   1.0000   1.0000   1.0000
     1.0000   1.0000   1.0000   1.0000   1.0001   1.0003   1.0024   1.0175
     1.0833   0.9252   0.3016   0.1071   0.0000   0.0000   0.0000

          k = 0.0500 0.1500 0.2500 (  4718 PWs)   bands (ev):

   -30.3694 -20.0151 -12.1122 -11.9017 -11.7382  -9.7752  -9.4203  -9.1064
    -5.0920  -5.0589  -5.0124   4.0775   4.4853   4.5294   4.5609   4.7499
     4.9906   5.1394   5.4653   5.6079  11.0466  11.2379  11.7862

     occupation numbers 
     1.0000   1.0000   1.0000   1.0000   1.0000   1.0000   1.0000   1.0000
     1.0000   1.0000   1.0000   1.0000   1.0000   1.0001   1.0002   1.0041
     1.0528   1.0813   0.4923   0.1779   0.0000   0.0000   0.0000

          k = 0.0500 0.1500 0.3500 (  4717 PWs)   bands (ev):

   -30.3682 -20.0101 -12.2862 -11.9018 -11.7362  -9.7863  -9.4192  -8.8232
    -5.0830  -5.0507  -5.0136   3.9607   4.2776   4.4232   4.4936   4.5811
     4.8572   5.1431   5.4036   5.5575  11.4039  11.6324  12.3313

     occupation numbers 
     1.0000   1.0000   1.0000   1.0000   1.0000   1.0000   1.0000   1.0000
     1.0000   1.0000   1.0000   1.0000   1.0000   1.0000   1.0000   1.0002
     1.0161   1.0806   0.6623   0.2695   0.0000   0.0000   0.0000

          k = 0.0500 0.1500 0.4500 (  4719 PWs)   bands (ev):

   -30.3675 -20.0070 -12.3815 -11.9019 -11.7349  -9.7967  -9.4191  -8.6537
    -5.0696  -5.0429  -5.0248   3.9323   4.0388   4.3744   4.4542   4.4914
     4.8201   5.1607   5.3531   5.5277  11.6588  11.8911  12.6434

     occupation numbers 
     1.0000   1.0000   1.0000   1.0000   1.0000   1.0000   1.0000   1.0000
     1.0000   1.0000   1.0000   1.0000   1.0000   1.0000   1.0000   1.0000
     1.0104   1.0756   0.7954   0.3346   0.0000   0.0000   0.0000

          k = 0.0500 0.2500 0.2500 (  4713 PWs)   bands (ev):

   -30.3682 -20.0101 -12.1158 -12.1122 -11.7362  -9.7404  -9.1617  -9.0838
    -5.1109  -5.0545  -5.0099   3.8938   4.3190   4.4757   4.5508   4.6754
     4.8859   5.1181   5.3979   5.5436  11.2733  11.6955  11.9812

     occupation numbers 
     1.0000   1.0000   1.0000   1.0000   1.0000   1.0000   1.0000   1.0000
     1.0000   1.0000   1.0000   1.0000   1.0000   1.0000   1.0001   1.0013
     1.0218   1.0833   0.6778   0.2988   0.0000   0.0000   0.0000

          k = 0.0500 0.2500 0.3500 (  4711 PWs)   bands (ev):

   -30.3670 -20.0051 -12.2892 -12.1159 -11.7341  -9.7328  -9.1348  -8.8347
    -5.1138  -5.0574  -5.0159   3.7442   4.1111   4.4117   4.4981   4.5571
     4.8225   5.0921   5.4143   5.4825  11.5801  12.1058  12.2767

     occupation numbers 
     1.0000   1.0000   1.0000   1.0000   1.0000   1.0000   1.0000   1.0000
     1.0000   1.0000   1.0000   1.0000   1.0000   1.0000   1.0000   1.0001
     1.0107   1.0817   0.6326   0.4467   0.0000   0.0000   0.0000

          k = 0.0500 0.2500 0.4500 (  4719 PWs)   bands (ev):

   -30.3663 -20.0020 -12.3851 -12.1171 -11.7329  -9.7320  -9.1380  -8.6667
    -5.1021  -5.0736  -5.0186   3.6719   3.9274   4.3665   4.4691   4.4889
     4.8251   5.0779   5.4192   5.4461  11.8453  12.3250  12.4292

     occupation numbers 
     1.0000   1.0000   1.0000   1.0000   1.0000   1.0000   1.0000   1.0000
     1.0000   1.0000   1.0000   1.0000   1.0000   1.0000   1.0000   1.0000
     1.0111   1.0793   0.6193   0.5448   0.0000   0.0000   0.0000

          k = 0.0500 0.3500 0.3500 (  4716 PWs)   bands (ev):

   -30.3659 -20.0001 -12.2930 -12.2915 -11.7321  -9.7103  -8.8674  -8.8311
    -5.1315  -5.0812  -5.0132   3.5499   3.9596   4.3971   4.4096   4.4859
     4.8236   5.0231   5.4100   5.5261  11.7929  12.1886  12.5773

     occupation numbers 
     1.0000   1.0000   1.0000   1.0000   1.0000   1.0000   1.0000   1.0000
     1.0000   1.0000   1.0000   1.0000   1.0000   1.0000   1.0000   1.0000
     1.0109   1.0640   0.6447   0.3383   0.0000   0.0000   0.0000

          k = 0.0500 0.3500 0.4500 (  4700 PWs)   bands (ev):

   -30.3651 -19.9970 -12.3887 -12.2942 -11.7308  -9.7007  -8.8569  -8.6798
    -5.1303  -5.1095  -5.0096   3.4439   3.8280   4.3432   4.3875   4.4276
     4.8889   4.9856   5.3663   5.5802  11.9756  12.1373  12.7593

     occupation numbers 
     1.0000   1.0000   1.0000   1.0000   1.0000   1.0000   1.0000   1.0000
     1.0000   1.0000   1.0000   1.0000   1.0000   1.0000   1.0000   1.0000
     1.0225   1.0511   0.7619   0.2253   0.0000   0.0000   0.0000

          k = 0.0500 0.4500 0.4500 (  4710 PWs)   bands (ev):

   -30.3644 -19.9938 -12.3910 -12.3909 -11.7295  -9.6862  -8.6905  -8.6860
    -5.1432  -5.1356  -5.0038   3.3221   3.7324   4.2758   4.3649   4.3755
     4.9549   4.9860   5.3167   5.6577  11.8471  12.2536  12.8411

     occupation numbers 
     1.0000   1.0000   1.0000   1.0000   1.0000   1.0000   1.0000   1.0000
     1.0000   1.0000   1.0000   1.0000   1.0000   1.0000   1.0000   1.0000
     1.0408   1.0512   0.8804   0.1111   0.0000   0.0000   0.0000

          k = 0.1500 0.1500 0.1500 (  4716 PWs)   bands (ev):

   -30.3698 -20.0170 -11.9083 -11.8978 -11.8978  -9.6543  -9.3657  -9.3657
    -5.0899  -5.0899  -5.0011   4.0959   4.5637   4.5637   4.7047   4.7047
     5.1697   5.1922   5.5192   5.5192  10.9586  10.9586  11.4866

     occupation numbers 
     1.0000   1.0000   1.0000   1.0000   1.0000   1.0000   1.0000   1.0000
     1.0000   1.0000   1.0000   1.0000   1.0002   1.0002   1.0021   1.0021
     1.0720   1.0592   0.3545   0.3545   0.0000   0.0000   0.0000

          k = 0.1500 0.1500 0.2500 (  4724 PWs)   bands (ev):

   -30.3686 -20.0121 -12.1126 -11.9064 -11.8947  -9.6065  -9.3608  -9.1072
    -5.1000  -5.0922  -4.9916   3.9523   4.4596   4.5047   4.6051   4.6064
     4.9754   5.2166   5.4113   5.4786  11.2121  11.3331  11.8377

     occupation numbers 
     1.0000   1.0000   1.0000   1.0000   1.0000   1.0000   1.0000   1.0000
     1.0000   1.0000   1.0000   1.0000   1.0000   1.0001   1.0004   1.0004
     1.0476   1.0389   0.6411   0.4569   0.0000   0.0000   0.0000

          k = 0.1500 0.1500 0.3500 (  4718 PWs)   bands (ev):

   -30.3675 -20.0071 -12.2871 -11.9083 -11.8915  -9.6118  -9.3558  -8.8274
    -5.0946  -5.0915  -5.0006   3.8645   4.2779   4.3408   4.4119   4.5642
     4.9901   5.2059   5.3209   5.4330  11.5516  11.7142  12.2551

     occupation numbers 
     1.0000   1.0000   1.0000   1.0000   1.0000   1.0000   1.0000   1.0000
     1.0000   1.0000   1.0000   1.0000   1.0000   1.0000   1.0000   1.0002
     1.0527   1.0487   0.8712   0.5809   0.0000   0.0000   0.0000

          k = 0.1500 0.1500 0.4500 (  4728 PWs)   bands (ev):

   -30.3668 -20.0040 -12.3826 -11.9095 -11.8896  -9.6206  -9.3527  -8.6586
    -5.0961  -5.0712  -5.0212   3.8680   4.0014   4.2759   4.3443   4.5399
     5.0705   5.1927   5.2288   5.4025  11.8238  11.9505  12.5274

     occupation numbers 
     1.0000   1.0000   1.0000   1.0000   1.0000   1.0000   1.0000   1.0000
     1.0000   1.0000   1.0000   1.0000   1.0000   1.0000   1.0000   1.0001
     1.0777   1.0589   1.0262   0.6653   0.0000   0.0000   0.0000

          k = 0.1500 0.2500 0.2500 (  4724 PWs)   bands (ev):

   -30.3675 -20.0071 -12.1169 -12.1096 -11.8985  -9.5201  -9.1539  -9.0792
    -5.1228  -5.1037  -4.9905   3.8157   4.3098   4.4446   4.5335   4.6293
     4.8141   5.2508   5.3766   5.4031  11.4327  11.6441  11.9812

     occupation numbers 
     1.0000   1.0000   1.0000   1.0000   1.0000   1.0000   1.0000   1.0000
     1.0000   1.0000   1.0000   1.0000   1.0000   1.0000   1.0001   1.0006
     1.0097   0.9985   0.7350   0.6636   0.0000   0.0000   0.0000

          k = 0.1500 0.2500 0.3500 (  4718 PWs)   bands (ev):

   -30.3663 -20.0022 -12.2886 -12.1141 -11.8968  -9.5068  -9.1236  -8.8339
    -5.1316  -5.1100  -5.0083   3.7256   4.1178   4.3374   4.3760   4.5795
     4.8617   5.2037   5.3436   5.4070  11.7213  11.9917  12.1752

     occupation numbers 
     1.0000   1.0000   1.0000   1.0000   1.0000   1.0000   1.0000   1.0000
     1.0000   1.0000   1.0000   1.0000   1.0000   1.0000   1.0000   1.0002
     1.0169   1.0506   0.8187   0.6529   0.0000   0.0000   0.0000

          k = 0.1500 0.2500 0.4500 (  4710 PWs)   bands (ev):

   -30.3656 -19.9991 -12.3845 -12.1147 -11.8956  -9.5055  -9.1234  -8.6667
    -5.1312  -5.1080  -5.0309   3.7074   3.9098   4.2547   4.3145   4.5627
     4.9586   5.1328   5.3103   5.4172  11.9974  12.2020  12.2831

     occupation numbers 
     1.0000   1.0000   1.0000   1.0000   1.0000   1.0000   1.0000   1.0000
     1.0000   1.0000   1.0000   1.0000   1.0000   1.0000   1.0000   1.0002
     1.0420   1.0823   0.8940   0.6248   0.0000   0.0000   0.0000

          k = 0.1500 0.3500 0.3500 (  4710 PWs)   bands (ev):

   -30.3652 -19.9973 -12.2918 -12.2884 -11.8943  -9.4785  -8.8633  -8.8246
    -5.1542  -5.1290  -5.0289   3.6041   3.9560   4.3190   4.3249   4.4467
     4.8704   5.1807   5.2733   5.5267  11.8750  12.1516  12.2934

     occupation numbers 
     1.0000   1.0000   1.0000   1.0000   1.0000   1.0000   1.0000   1.0000
     1.0000   1.0000   1.0000   1.0000   1.0000   1.0000   1.0000   1.0000
     1.0186   1.0664   0.9640   0.3370   0.0000   0.0000   0.0000

          k = 0.1500 0.3500 0.4500 (  4701 PWs)   bands (ev):

   -30.3644 -19.9942 -12.3864 -12.2911 -11.8926  -9.4686  -8.8487  -8.6750
    -5.1593  -5.1440  -5.0467   3.5426   3.8153   4.2676   4.2845   4.3999
     4.9570   5.1409   5.2330   5.5838  11.9400  12.2274  12.4776

     occupation numbers 
     1.0000   1.0000   1.0000   1.0000   1.0000   1.0000   1.0000   1.0000
     1.0000   1.0000   1.0000   1.0000   1.0000   1.0000   1.0000   1.0000
     1.0415   1.0810   1.0213   0.2186   0.0000   0.0000   0.0000

          k = 0.1500 0.4500 0.4500 (  4683 PWs)   bands (ev):

   -30.3637 -19.9912 -12.3878 -12.3874 -11.8907  -9.4539  -8.6830  -8.6781
    -5.1726  -5.1675  -5.0585   3.4522   3.7250   4.2617   4.2654   4.2886
     5.0330   5.1545   5.1715   5.6652  11.7772  12.4078  12.5396

     occupation numbers 
     1.0000   1.0000   1.0000   1.0000   1.0000   1.0000   1.0000   1.0000
     1.0000   1.0000   1.0000   1.0000   1.0000   1.0000   1.0000   1.0000
     1.0672   1.0777   1.0711   0.1029   0.0000   0.0000   0.0000

          k = 0.2500 0.2500 0.2500 (  4695 PWs)   bands (ev):

   -30.3663 -20.0023 -12.1243 -12.1055 -12.1055  -9.2799  -9.0718  -9.0718
    -5.1423  -5.1423  -4.9994   3.7304   4.2953   4.2953   4.5174   4.6242
     4.6242   5.3273   5.3273   5.3811  11.7050  11.7050  12.0014

     occupation numbers 
     1.0000   1.0000   1.0000   1.0000   1.0000   1.0000   1.0000   1.0000
     1.0000   1.0000   1.0000   1.0000   1.0000   1.0000   1.0001   1.0005
     1.0005   0.8569   0.8569   0.7231   0.0000   0.0000   0.0000

          k = 0.2500 0.2500 0.3500 (  4713 PWs)   bands (ev):

   -30.3652 -19.9975 -12.2877 -12.1193 -12.1013  -9.2299  -9.0642  -8.8321
    -5.1619  -5.1578  -5.0307   3.6894   4.1379   4.1836   4.3105   4.6270
     4.6563   5.2970   5.3247   5.4381  11.9155  11.9512  12.0519

     occupation numbers 
     1.0000   1.0000   1.0000   1.0000   1.0000   1.0000   1.0000   1.0000
     1.0000   1.0000   1.0000   1.0000   1.0000   1.0000   1.0000   1.0006
     1.0009   0.9211   0.8627   0.5667   0.0000   0.0000   0.0000

          k = 0.2500 0.2500 0.4500 (  4711 PWs)   bands (ev):

   -30.3644 -19.9945 -12.3836 -12.1205 -12.0987  -9.2260  -9.0595  -8.6669
    -5.1741  -5.1526  -5.0645   3.7164   3.8830   4.1268   4.2617   4.6298
     4.7032   5.2754   5.3234   5.4593  12.0667  12.0984  12.2253

     occupation numbers 
     1.0000   1.0000   1.0000   1.0000   1.0000   1.0000   1.0000   1.0000
     1.0000   1.0000   1.0000   1.0000   1.0000   1.0000   1.0000   1.0006
     1.0020   0.9606   0.8656   0.5088   0.0000   0.0000   0.0000

          k = 0.2500 0.3500 0.3500 (  4702 PWs)   bands (ev):

   -30.3640 -19.9928 -12.2900 -12.2833 -12.1067  -9.1523  -8.8543  -8.8139
    -5.1909  -5.1868  -5.0721   3.6638   3.9839   4.1982   4.2084   4.4470
     4.6733   5.3165   5.3501   5.5367  11.8968  12.0364  12.0522

     occupation numbers 
     1.0000   1.0000   1.0000   1.0000   1.0000   1.0000   1.0000   1.0000
     1.0000   1.0000   1.0000   1.0000   1.0000   1.0000   1.0000   1.0000
     1.0012   0.8808   0.8029   0.3141   0.0000   0.0000   0.0000

          k = 0.2500 0.3500 0.4500 (  4708 PWs)   bands (ev):

   -30.3633 -19.9898 -12.3828 -12.2861 -12.1048  -9.1402  -8.8341  -8.6672
    -5.2071  -5.1941  -5.1094   3.6804   3.8026   4.1294   4.2063   4.4017
     4.6977   5.3216   5.3650   5.5940  11.8424  12.0698  12.1543

     occupation numbers 
     1.0000   1.0000   1.0000   1.0000   1.0000   1.0000   1.0000   1.0000
     1.0000   1.0000   1.0000   1.0000   1.0000   1.0000   1.0000   1.0000
     1.0019   0.8697   0.7652   0.2007   0.0000   0.0000   0.0000

          k = 0.2500 0.4500 0.4500 (  4702 PWs)   bands (ev):

   -30.3626 -19.9869 -12.3826 -12.3818 -12.1024  -9.1235  -8.6707  -8.6652
    -5.2200  -5.2188  -5.1446   3.6556   3.7042   4.1560   4.1578   4.2845
     4.7148   5.3644   5.3753   5.6776  11.6647  12.1069  12.1081

     occupation numbers 
     1.0000   1.0000   1.0000   1.0000   1.0000   1.0000   1.0000   1.0000
     1.0000   1.0000   1.0000   1.0000   1.0000   1.0000   1.0000   1.0000
     1.0024   0.7668   0.7385   0.0904   0.0000   0.0000   0.0000

          k = 0.3500 0.3500 0.3500 (  4707 PWs)   bands (ev):

   -30.3628 -19.9882 -12.2921 -12.2782 -12.2782  -8.9005  -8.8031  -8.8031
    -5.2276  -5.2276  -5.1303   3.6903   3.9857   4.1047   4.1047   4.4519
     4.4519   5.4466   5.4466   5.5787  11.8101  11.8943  11.8943

     occupation numbers 
     1.0000   1.0000   1.0000   1.0000   1.0000   1.0000   1.0000   1.0000
     1.0000   1.0000   1.0000   1.0000   1.0000   1.0000   1.0000   1.0000
     1.0000   0.5434   0.5434   0.2280   0.0000   0.0000   0.0000

          k = 0.3500 0.3500 0.4500 (  4708 PWs)   bands (ev):

   -30.3621 -19.9854 -12.3791 -12.2862 -12.2751  -8.8668  -8.7963  -8.6594
    -5.2504  -5.2402  -5.1779   3.6942   3.8564   4.0571   4.1282   4.3746
     4.4554   5.4712   5.5255   5.6272  11.7174  11.8223  11.8413

     occupation numbers 
     1.0000   1.0000   1.0000   1.0000   1.0000   1.0000   1.0000   1.0000
     1.0000   1.0000   1.0000   1.0000   1.0000   1.0000   1.0000   1.0000
     1.0000   0.4765   0.3397   0.1493   0.0000   0.0000   0.0000

          k = 0.3500 0.4500 0.4500 (  4714 PWs)   bands (ev):

   -30.3614 -19.9827 -12.3775 -12.3762 -12.2774  -8.8248  -8.6580  -8.6520
    -5.2691  -5.2674  -5.2285   3.6303   3.8729   4.0718   4.0766   4.2876
     4.4257   5.5628   5.5716   5.6910  11.5541  11.7163  11.7219

     occupation numbers 
     1.0000   1.0000   1.0000   1.0000   1.0000   1.0000   1.0000   1.0000
     1.0000   1.0000   1.0000   1.0000   1.0000   1.0000   1.0000   1.0000
     1.0000   0.2586   0.2414   0.0783   0.0000   0.0000   0.0000

          k = 0.4500 0.4500 0.4500 (  4704 PWs)   bands (ev):

   -30.3607 -19.9800 -12.3749 -12.3727 -12.3727  -8.6562  -8.6436  -8.6436
    -5.2968  -5.2968  -5.2823   3.5557   3.9916   4.0347   4.0347   4.2897
     4.2897   5.6817   5.6817   5.7057  11.4788  11.4984  11.4985

     occupation numbers 
     1.0000   1.0000   1.0000   1.0000   1.0000   1.0000   1.0000   1.0000
     1.0000   1.0000   1.0000   1.0000   1.0000   1.0000   1.0000   1.0000
     1.0000   0.0866   0.0866   0.0665   0.0000   0.0000   0.0000

     the Fermi energy is     5.5004 ev

!    total energy              =    -628.29579793 Ry
     estimated scf accuracy    <       0.00000003 Ry
     smearing contrib. (-TS)   =      -0.00194524 Ry
     internal energy E=F+TS    =    -628.29385268 Ry

     The total energy is F=E-TS. E is the sum of the following terms:
     one-electron contribution =     -64.49783639 Ry
     hartree contribution      =      52.32876541 Ry
     xc contribution           =     -53.70776933 Ry
     ewald contribution        =    -166.45952522 Ry
     one-center paw contrib.   =    -395.95748717 Ry
      -> PAW hartree energy AE =      28.31060972 Ry
      -> PAW hartree energy PS =     -28.19362203 Ry
      -> PAW xc energy AE      =    -387.72821582 Ry
      -> PAW xc energy PS      =      19.01530185 Ry
      -> total E_H with PAW    =      52.44575309 Ry
      -> total E_XC with PAW   =    -422.42068330 Ry

     convergence has been achieved in  11 iterations

     Forces acting on atoms (cartesian axes, Ry/au):

     atom    1 type  1   force =     0.00000000    0.00000000    0.00000000
     atom    2 type  2   force =     0.00000000    0.00000000    0.00000000
     atom    3 type  3   force =     0.00000000    0.00000000    0.00000000
     atom    4 type  3   force =     0.00000000    0.00000000    0.00000000
     atom    5 type  3   force =     0.00000000    0.00000000    0.00000000
     The non-local contrib.  to forces
     atom    1 type  1   force =     0.00000000    0.00000000    0.00000000
     atom    2 type  2   force =     0.00000000    0.00000000    0.00000000
     atom    3 type  3   force =     0.00000000    0.00000000    0.00000000
     atom    4 type  3   force =     0.00000000    0.00000000    0.00000000
     atom    5 type  3   force =     0.00000000    0.00000000    0.00000000
     The ionic contribution  to forces
     atom    1 type  1   force =    -0.00000000   -0.00000000   -0.00000000
     atom    2 type  2   force =     0.00000000    0.00000000    0.00000000
     atom    3 type  3   force =     0.00000000    0.00000000   -0.00000000
     atom    4 type  3   force =     0.00000000   -0.00000000    0.00000000
     atom    5 type  3   force =    -0.00000000    0.00000000    0.00000000
     The local contribution  to forces
     atom    1 type  1   force =     0.00000000    0.00000000    0.00000000
     atom    2 type  2   force =     0.00000000    0.00000000    0.00000000
     atom    3 type  3   force =     0.00000000    0.00000000   -0.00000000
     atom    4 type  3   force =     0.00000000    0.00000000    0.00000000
     atom    5 type  3   force =     0.00000000    0.00000000    0.00000000
     The core correction contribution to forces
     atom    1 type  1   force =     0.00000000    0.00000000    0.00000000
     atom    2 type  2   force =     0.00000000   -0.00000000    0.00000000
     atom    3 type  3   force =     0.00000000    0.00000000    0.00000000
     atom    4 type  3   force =     0.00000000    0.00000000    0.00000000
     atom    5 type  3   force =     0.00000000   -0.00000000    0.00000000
     The Hubbard contrib.    to forces
     atom    1 type  1   force =     0.00000000    0.00000000    0.00000000
     atom    2 type  2   force =     0.00000000    0.00000000    0.00000000
     atom    3 type  3   force =     0.00000000    0.00000000    0.00000000
     atom    4 type  3   force =     0.00000000    0.00000000    0.00000000
     atom    5 type  3   force =     0.00000000    0.00000000    0.00000000
     The SCF correction term to forces
     atom    1 type  1   force =    -0.00000000    0.00000000    0.00000000
     atom    2 type  2   force =    -0.00000000   -0.00000000   -0.00000000
     atom    3 type  3   force =     0.00000000    0.00000000    0.00000000
     atom    4 type  3   force =    -0.00000000    0.00000000   -0.00000000
     atom    5 type  3   force =    -0.00000000   -0.00000000   -0.00000000

     Total force =     0.000000     Total SCF correction =     0.000000


     Computing stress (Cartesian axis) and pressure

          total   stress  (Ry/bohr**3)                   (kbar)     P=      -47.66
  -0.00032402   0.00000000   0.00000000          -47.66        0.00        0.00
   0.00000000  -0.00032402   0.00000000            0.00      -47.66        0.00
   0.00000000   0.00000000  -0.00032402            0.00        0.00      -47.66

     kinetic stress (kbar)  14348.17      0.00      0.00
                                0.00  14348.17      0.00
                                0.00      0.00  14348.17

     local   stress (kbar)  -6180.38     -0.00     -0.00
                               -0.00  -6180.38      0.00
                               -0.00      0.00  -6180.38

     nonloc. stress (kbar)   4546.13      0.00      0.00
                                0.00   4546.13      0.00
                                0.00      0.00   4546.13

     hartree stress (kbar)   4273.20     -0.00      0.00
                               -0.00   4273.20     -0.00
                                0.00     -0.00   4273.20

     exc-cor stress (kbar)    451.62     -0.00      0.00
                               -0.00    451.62      0.00
                                0.00      0.00    451.62

     corecor stress (kbar)  -3893.21      0.00     -0.00
                                0.00  -3893.21     -0.00
                               -0.00     -0.00  -3893.21

     ewald   stress (kbar) -13593.20      0.00     -0.00
                                0.00 -13593.20     -0.00
                               -0.00     -0.00 -13593.20

     hubbard stress (kbar)      0.00      0.00      0.00
                                0.00      0.00      0.00
                                0.00      0.00      0.00

     DFT-D   stress (kbar)      0.00      0.00      0.00
                                0.00      0.00      0.00
                                0.00      0.00      0.00

     XDM     stress (kbar)      0.00      0.00      0.00
                                0.00      0.00      0.00
                                0.00      0.00      0.00

     dft-nl  stress (kbar)      0.00      0.00      0.00
                                0.00      0.00      0.00
                                0.00      0.00      0.00

     TS-vdW  stress (kbar)      0.00      0.00      0.00
                                0.00      0.00      0.00
                                0.00      0.00      0.00

     MDB     stress (kbar)      0.00      0.00      0.00
                                0.00      0.00      0.00
                                0.00      0.00      0.00

     3D-RISM stress (kbar)      0.00      0.00      0.00
                                0.00      0.00      0.00
                                0.00      0.00      0.00


     Writing all to output data dir ./out/BCO.save/ :
     XML data file, charge density, pseudopotentials, collected wavefunctions

     init_run     :      1.46s CPU      1.81s WALL (       1 calls)
     electrons    :     18.88s CPU     19.86s WALL (       1 calls)
     forces       :      1.05s CPU      1.25s WALL (       1 calls)
     stress       :      1.14s CPU      1.15s WALL (       1 calls)

     Called by init_run:
     wfcinit      :      0.35s CPU      0.39s WALL (       1 calls)
     wfcinit:atom :      0.00s CPU      0.00s WALL (      35 calls)
     wfcinit:wfcr :      0.33s CPU      0.37s WALL (      35 calls)
     potinit      :      0.14s CPU      0.17s WALL (       1 calls)
     hinit0       :      0.61s CPU      0.72s WALL (       1 calls)

     Called by electrons:
     c_bands      :     12.81s CPU     13.19s WALL (      11 calls)
     sum_band     :      4.13s CPU      4.56s WALL (      11 calls)
     v_of_rho     :      0.17s CPU      0.18s WALL (      12 calls)
     v_h          :      0.01s CPU      0.01s WALL (      12 calls)
     v_xc         :      0.19s CPU      0.21s WALL (      14 calls)
     newd         :      1.03s CPU      1.12s WALL (      12 calls)
     PAW_pot      :      0.62s CPU      0.65s WALL (      12 calls)
     mix_rho      :      0.02s CPU      0.02s WALL (      11 calls)

     Called by c_bands:
     init_us_2    :      0.13s CPU      0.14s WALL (     875 calls)
     init_us_2:cp :      0.13s CPU      0.13s WALL (     875 calls)
     cegterg      :     12.47s CPU     12.84s WALL (     385 calls)

     Called by sum_band:
     sum_band:wei :      0.01s CPU      0.01s WALL (      11 calls)
     sum_band:loo :      3.06s CPU      3.48s WALL (      11 calls)
     sum_band:buf :      0.02s CPU      0.02s WALL (     385 calls)
     sum_band:ini :      0.05s CPU      0.05s WALL (     385 calls)
     sum_band:cal :      0.47s CPU      0.52s WALL (     385 calls)
     sum_band:bec :      0.01s CPU      0.01s WALL (     385 calls)
     addusdens    :      1.00s CPU      1.00s WALL (      11 calls)
                                        0.00s GPU  (      11 calls)
     addusd:skk   :      0.00s CPU      0.00s WALL (      33 calls)
                                        0.00s GPU  (      33 calls)

     Called by *egterg:
     cdiaghg      :      1.25s CPU      1.29s WALL (    1948 calls)
     cegterg:over :      0.92s CPU      0.96s WALL (    1563 calls)
     cegterg:upda :      0.34s CPU      0.35s WALL (    1563 calls)
     cegterg:last :      0.81s CPU      0.82s WALL (     844 calls)
     h_psi        :      7.95s CPU      8.21s WALL (    1983 calls)
     s_psi        :      0.72s CPU      0.74s WALL (    1983 calls)
     g_psi        :      0.03s CPU      0.03s WALL (    1563 calls)

     Called by h_psi:
     h_psi:calbec :      1.03s CPU      1.09s WALL (    1983 calls)
     vloc_psi     :      6.17s CPU      6.35s WALL (    1983 calls)
     add_vuspsi   :      0.73s CPU      0.75s WALL (    1983 calls)

     General routines
     calbec       :      2.53s CPU      2.84s WALL (    2543 calls)
     fft          :      0.51s CPU      0.56s WALL (     179 calls)
     ffts         :      0.08s CPU      0.08s WALL (      23 calls)
     fftw         :      7.47s CPU      7.99s WALL (   57579 calls)
     interpolate  :      0.09s CPU      0.09s WALL (      12 calls)

     Parallel routines

     PAW routines
     PAW_pot      :      0.62s CPU      0.65s WALL (      12 calls)
     PAW_symme    :      0.01s CPU      0.01s WALL (      23 calls)

     PWSCF        :     23.50s CPU     25.32s WALL


   This run was terminated on:  18:20:21   7Apr2025            

=------------------------------------------------------------------------------=
   JOB DONE.
=------------------------------------------------------------------------------=
