
     Program PWSCF v.7.3 starts on  7Apr2025 at 18:35:46 

     This program is part of the open-source Quantum ESPRESSO suite
     for quantum simulation of materials; please cite
         "P. Giannozzi et al., J. Phys.:Condens. Matter 21 395502 (2009);
         "P. Giannozzi et al., J. Phys.:Condens. Matter 29 465901 (2017);
         "P. Giannozzi et al., J. Chem. Phys. 152 154105 (2020);
          URL http://www.quantum-espresso.org", 
     in publications or presentations arising from this work. More details at
     http://www.quantum-espresso.org/quote

     Parallel version (MPI), running on    20 processors

     MPI processes distributed on     1 nodes
     26691 MiB available memory on the printing compute node when the environment starts

     Waiting for input...
     Reading input from standard input

     Current dimensions of program PWSCF are:
     Max number of different atomic species (ntypx) = 10
     Max number of k-points (npk) = 120000
     Max angular momentum in pseudopotentials (lmaxx) =  4
     file Ba.pbesol-spn-kjpaw_psl.1.0.0.UPF: wavefunction(s)  5S 6S renormalized
     file O.pbesol-n-kjpaw_psl.0.1.UPF: wavefunction(s)  2P renormalized
     Message from routine setup:
     using ibrav=0 with symmetry is DISCOURAGED, use correct ibrav instead

     R & G space division:  proc/nbgrp/npool/nimage =      20
     Subspace diagonalization in iterative solution of the eigenvalue problem:
     a serial algorithm will be used


     Parallelization info
     --------------------
     sticks:   dense  smooth     PW     G-vecs:    dense   smooth      PW
     Min         254     101     28                13688     3461     518
     Max         255     102     29                13691     3464     521
     Sum        5097    2029    577               273785    69239   10395

     Using Slab Decomposition



     bravais-lattice index     =            0
     lattice parameter (alat)  =       8.4365  a.u.
     unit-cell volume          =     600.4730 (a.u.)^3
     number of atoms/cell      =            5
     number of atomic types    =            3
     number of electrons       =        38.00
     number of Kohn-Sham states=           23
     kinetic-energy cutoff     =      90.0000  Ry
     charge density cutoff     =     900.0000  Ry
     scf convergence threshold =      1.0E-07
     mixing beta               =       0.4000
     number of iterations used =            8  plain     mixing
     Exchange-correlation= SLA  PW   PSX  PSC
                           (   1   4  10   8   0   0   0)

     celldm(1)=   8.436542  celldm(2)=   0.000000  celldm(3)=   0.000000
     celldm(4)=   0.000000  celldm(5)=   0.000000  celldm(6)=   0.000000

     crystal axes: (cart. coord. in units of alat)
               a(1) = (   1.000000   0.000000   0.000000 )  
               a(2) = (   0.000000   1.000000   0.000000 )  
               a(3) = (   0.000000   0.000000   1.000000 )  

     reciprocal axes: (cart. coord. in units 2 pi/alat)
               b(1) = (  1.000000  0.000000  0.000000 )  
               b(2) = (  0.000000  1.000000  0.000000 )  
               b(3) = (  0.000000  0.000000  1.000000 )  


     PseudoPot. # 1 for Ba read from file:
     ./pseudo/Ba.pbesol-spn-kjpaw_psl.1.0.0.UPF
     MD5 check sum: f28c4a63d325c1a0d00fd3a4f19b8d73
     Pseudo is Projector augmented-wave + core cor, Zval = 10.0
     Generated using "atomic" code by A. Dal Corso  v.6.0 svn rev. 13079
     Shape of augmentation charge: PSQ
     Using radial grid of 1251 points,  7 beta functions with: 
                l(1) =   0
                l(2) =   0
                l(3) =   0
                l(4) =   1
                l(5) =   1
                l(6) =   2
                l(7) =   2
     Q(r) pseudized with 0 coefficients 


     PseudoPot. # 2 for Ca read from file:
     ./pseudo/ca_pbesol_v1.uspp.F.UPF
     MD5 check sum: 0533207b58cddeaa036efa5b63902087
     Pseudo is Ultrasoft + core correction, Zval = 10.0
     Generated by new atomic code, or converted to UPF format
     Using radial grid of  845 points,  6 beta functions with: 
                l(1) =   0
                l(2) =   0
                l(3) =   1
                l(4) =   1
                l(5) =   2
                l(6) =   2
     Q(r) pseudized with  8 coefficients,  rinner =    1.500   1.500   1.500
                                                       1.500   1.500

     PseudoPot. # 3 for O  read from file:
     ./pseudo/O.pbesol-n-kjpaw_psl.0.1.UPF
     MD5 check sum: 81d73d1479e654e5638b0319f0d6c2c7
     Pseudo is Projector augmented-wave + core cor, Zval =  6.0
     Generated using "atomic" code by A. Dal Corso  v.6.0 svn rev. 13079
     Shape of augmentation charge: BESSEL
     Using radial grid of 1095 points,  4 beta functions with: 
                l(1) =   0
                l(2) =   0
                l(3) =   1
                l(4) =   1
     Q(r) pseudized with 0 coefficients 


     atomic species   valence    mass     pseudopotential
     Ba               10.00   137.32700     Ba( 1.00)
     Ca               10.00    40.07800     Ca( 1.00)
     O                 6.00    15.99940     O ( 1.00)

     48 Sym. Ops., with inversion, found


                                    s                        frac. trans.

      isym =  1     identity                                     

 cryst.   s( 1) = (     1          0          0      )
                  (     0          1          0      )
                  (     0          0          1      )

 cart.    s( 1) = (  1.0000000  0.0000000  0.0000000 )
                  (  0.0000000  1.0000000  0.0000000 )
                  (  0.0000000  0.0000000  1.0000000 )


      isym =  2     180 deg rotation - cart. axis [0,0,1]        

 cryst.   s( 2) = (    -1          0          0      )
                  (     0         -1          0      )
                  (     0          0          1      )

 cart.    s( 2) = ( -1.0000000  0.0000000  0.0000000 )
                  (  0.0000000 -1.0000000  0.0000000 )
                  (  0.0000000  0.0000000  1.0000000 )


      isym =  3     180 deg rotation - cart. axis [0,1,0]        

 cryst.   s( 3) = (    -1          0          0      )
                  (     0          1          0      )
                  (     0          0         -1      )

 cart.    s( 3) = ( -1.0000000  0.0000000  0.0000000 )
                  (  0.0000000  1.0000000  0.0000000 )
                  (  0.0000000  0.0000000 -1.0000000 )


      isym =  4     180 deg rotation - cart. axis [1,0,0]        

 cryst.   s( 4) = (     1          0          0      )
                  (     0         -1          0      )
                  (     0          0         -1      )

 cart.    s( 4) = (  1.0000000  0.0000000  0.0000000 )
                  (  0.0000000 -1.0000000  0.0000000 )
                  (  0.0000000  0.0000000 -1.0000000 )


      isym =  5     180 deg rotation - cart. axis [1,1,0]        

 cryst.   s( 5) = (     0          1          0      )
                  (     1          0          0      )
                  (     0          0         -1      )

 cart.    s( 5) = (  0.0000000  1.0000000  0.0000000 )
                  (  1.0000000  0.0000000  0.0000000 )
                  (  0.0000000  0.0000000 -1.0000000 )


      isym =  6     180 deg rotation - cart. axis [1,-1,0]       

 cryst.   s( 6) = (     0         -1          0      )
                  (    -1          0          0      )
                  (     0          0         -1      )

 cart.    s( 6) = (  0.0000000 -1.0000000  0.0000000 )
                  ( -1.0000000  0.0000000  0.0000000 )
                  (  0.0000000  0.0000000 -1.0000000 )


      isym =  7      90 deg rotation - cart. axis [0,0,-1]       

 cryst.   s( 7) = (     0         -1          0      )
                  (     1          0          0      )
                  (     0          0          1      )

 cart.    s( 7) = (  0.0000000  1.0000000  0.0000000 )
                  ( -1.0000000  0.0000000  0.0000000 )
                  (  0.0000000  0.0000000  1.0000000 )


      isym =  8      90 deg rotation - cart. axis [0,0,1]        

 cryst.   s( 8) = (     0          1          0      )
                  (    -1          0          0      )
                  (     0          0          1      )

 cart.    s( 8) = (  0.0000000 -1.0000000  0.0000000 )
                  (  1.0000000  0.0000000  0.0000000 )
                  (  0.0000000  0.0000000  1.0000000 )


      isym =  9     180 deg rotation - cart. axis [1,0,1]        

 cryst.   s( 9) = (     0          0          1      )
                  (     0         -1          0      )
                  (     1          0          0      )

 cart.    s( 9) = (  0.0000000  0.0000000  1.0000000 )
                  (  0.0000000 -1.0000000  0.0000000 )
                  (  1.0000000  0.0000000  0.0000000 )


      isym = 10     180 deg rotation - cart. axis [-1,0,1]       

 cryst.   s(10) = (     0          0         -1      )
                  (     0         -1          0      )
                  (    -1          0          0      )

 cart.    s(10) = (  0.0000000  0.0000000 -1.0000000 )
                  (  0.0000000 -1.0000000  0.0000000 )
                  ( -1.0000000  0.0000000  0.0000000 )


      isym = 11      90 deg rotation - cart. axis [0,1,0]        

 cryst.   s(11) = (     0          0         -1      )
                  (     0          1          0      )
                  (     1          0          0      )

 cart.    s(11) = (  0.0000000  0.0000000  1.0000000 )
                  (  0.0000000  1.0000000  0.0000000 )
                  ( -1.0000000  0.0000000  0.0000000 )


      isym = 12      90 deg rotation - cart. axis [0,-1,0]       

 cryst.   s(12) = (     0          0          1      )
                  (     0          1          0      )
                  (    -1          0          0      )

 cart.    s(12) = (  0.0000000  0.0000000 -1.0000000 )
                  (  0.0000000  1.0000000  0.0000000 )
                  (  1.0000000  0.0000000  0.0000000 )


      isym = 13     180 deg rotation - cart. axis [0,1,1]        

 cryst.   s(13) = (    -1          0          0      )
                  (     0          0          1      )
                  (     0          1          0      )

 cart.    s(13) = ( -1.0000000  0.0000000  0.0000000 )
                  (  0.0000000  0.0000000  1.0000000 )
                  (  0.0000000  1.0000000  0.0000000 )


      isym = 14     180 deg rotation - cart. axis [0,1,-1]       

 cryst.   s(14) = (    -1          0          0      )
                  (     0          0         -1      )
                  (     0         -1          0      )

 cart.    s(14) = ( -1.0000000  0.0000000  0.0000000 )
                  (  0.0000000  0.0000000 -1.0000000 )
                  (  0.0000000 -1.0000000  0.0000000 )


      isym = 15      90 deg rotation - cart. axis [-1,0,0]       

 cryst.   s(15) = (     1          0          0      )
                  (     0          0         -1      )
                  (     0          1          0      )

 cart.    s(15) = (  1.0000000  0.0000000  0.0000000 )
                  (  0.0000000  0.0000000  1.0000000 )
                  (  0.0000000 -1.0000000  0.0000000 )


      isym = 16      90 deg rotation - cart. axis [1,0,0]        

 cryst.   s(16) = (     1          0          0      )
                  (     0          0          1      )
                  (     0         -1          0      )

 cart.    s(16) = (  1.0000000  0.0000000  0.0000000 )
                  (  0.0000000  0.0000000 -1.0000000 )
                  (  0.0000000  1.0000000  0.0000000 )


      isym = 17     120 deg rotation - cart. axis [-1,-1,-1]     

 cryst.   s(17) = (     0          0          1      )
                  (     1          0          0      )
                  (     0          1          0      )

 cart.    s(17) = (  0.0000000  1.0000000  0.0000000 )
                  (  0.0000000  0.0000000  1.0000000 )
                  (  1.0000000  0.0000000  0.0000000 )


      isym = 18     120 deg rotation - cart. axis [-1,1,1]       

 cryst.   s(18) = (     0          0         -1      )
                  (    -1          0          0      )
                  (     0          1          0      )

 cart.    s(18) = (  0.0000000 -1.0000000  0.0000000 )
                  (  0.0000000  0.0000000  1.0000000 )
                  ( -1.0000000  0.0000000  0.0000000 )


      isym = 19     120 deg rotation - cart. axis [1,1,-1]       

 cryst.   s(19) = (     0          0         -1      )
                  (     1          0          0      )
                  (     0         -1          0      )

 cart.    s(19) = (  0.0000000  1.0000000  0.0000000 )
                  (  0.0000000  0.0000000 -1.0000000 )
                  ( -1.0000000  0.0000000  0.0000000 )


      isym = 20     120 deg rotation - cart. axis [1,-1,1]       

 cryst.   s(20) = (     0          0          1      )
                  (    -1          0          0      )
                  (     0         -1          0      )

 cart.    s(20) = (  0.0000000 -1.0000000  0.0000000 )
                  (  0.0000000  0.0000000 -1.0000000 )
                  (  1.0000000  0.0000000  0.0000000 )


      isym = 21     120 deg rotation - cart. axis [1,1,1]        

 cryst.   s(21) = (     0          1          0      )
                  (     0          0          1      )
                  (     1          0          0      )

 cart.    s(21) = (  0.0000000  0.0000000  1.0000000 )
                  (  1.0000000  0.0000000  0.0000000 )
                  (  0.0000000  1.0000000  0.0000000 )


      isym = 22     120 deg rotation - cart. axis [-1,1,-1]      

 cryst.   s(22) = (     0         -1          0      )
                  (     0          0         -1      )
                  (     1          0          0      )

 cart.    s(22) = (  0.0000000  0.0000000  1.0000000 )
                  ( -1.0000000  0.0000000  0.0000000 )
                  (  0.0000000 -1.0000000  0.0000000 )


      isym = 23     120 deg rotation - cart. axis [1,-1,-1]      

 cryst.   s(23) = (     0         -1          0      )
                  (     0          0          1      )
                  (    -1          0          0      )

 cart.    s(23) = (  0.0000000  0.0000000 -1.0000000 )
                  ( -1.0000000  0.0000000  0.0000000 )
                  (  0.0000000  1.0000000  0.0000000 )


      isym = 24     120 deg rotation - cart. axis [-1,-1,1]      

 cryst.   s(24) = (     0          1          0      )
                  (     0          0         -1      )
                  (    -1          0          0      )

 cart.    s(24) = (  0.0000000  0.0000000 -1.0000000 )
                  (  1.0000000  0.0000000  0.0000000 )
                  (  0.0000000 -1.0000000  0.0000000 )


      isym = 25     inversion                                    

 cryst.   s(25) = (    -1          0          0      )
                  (     0         -1          0      )
                  (     0          0         -1      )

 cart.    s(25) = ( -1.0000000  0.0000000  0.0000000 )
                  (  0.0000000 -1.0000000  0.0000000 )
                  (  0.0000000  0.0000000 -1.0000000 )


      isym = 26     inv. 180 deg rotation - cart. axis [0,0,1]   

 cryst.   s(26) = (     1          0          0      )
                  (     0          1          0      )
                  (     0          0         -1      )

 cart.    s(26) = (  1.0000000  0.0000000  0.0000000 )
                  (  0.0000000  1.0000000  0.0000000 )
                  (  0.0000000  0.0000000 -1.0000000 )


      isym = 27     inv. 180 deg rotation - cart. axis [0,1,0]   

 cryst.   s(27) = (     1          0          0      )
                  (     0         -1          0      )
                  (     0          0          1      )

 cart.    s(27) = (  1.0000000  0.0000000  0.0000000 )
                  (  0.0000000 -1.0000000  0.0000000 )
                  (  0.0000000  0.0000000  1.0000000 )


      isym = 28     inv. 180 deg rotation - cart. axis [1,0,0]   

 cryst.   s(28) = (    -1          0          0      )
                  (     0          1          0      )
                  (     0          0          1      )

 cart.    s(28) = ( -1.0000000  0.0000000  0.0000000 )
                  (  0.0000000  1.0000000  0.0000000 )
                  (  0.0000000  0.0000000  1.0000000 )


      isym = 29     inv. 180 deg rotation - cart. axis [1,1,0]   

 cryst.   s(29) = (     0         -1          0      )
                  (    -1          0          0      )
                  (     0          0          1      )

 cart.    s(29) = (  0.0000000 -1.0000000  0.0000000 )
                  ( -1.0000000  0.0000000  0.0000000 )
                  (  0.0000000  0.0000000  1.0000000 )


      isym = 30     inv. 180 deg rotation - cart. axis [1,-1,0]  

 cryst.   s(30) = (     0          1          0      )
                  (     1          0          0      )
                  (     0          0          1      )

 cart.    s(30) = (  0.0000000  1.0000000  0.0000000 )
                  (  1.0000000  0.0000000  0.0000000 )
                  (  0.0000000  0.0000000  1.0000000 )


      isym = 31     inv.  90 deg rotation - cart. axis [0,0,-1]  

 cryst.   s(31) = (     0          1          0      )
                  (    -1          0          0      )
                  (     0          0         -1      )

 cart.    s(31) = (  0.0000000 -1.0000000  0.0000000 )
                  (  1.0000000  0.0000000  0.0000000 )
                  (  0.0000000  0.0000000 -1.0000000 )


      isym = 32     inv.  90 deg rotation - cart. axis [0,0,1]   

 cryst.   s(32) = (     0         -1          0      )
                  (     1          0          0      )
                  (     0          0         -1      )

 cart.    s(32) = (  0.0000000  1.0000000  0.0000000 )
                  ( -1.0000000  0.0000000  0.0000000 )
                  (  0.0000000  0.0000000 -1.0000000 )


      isym = 33     inv. 180 deg rotation - cart. axis [1,0,1]   

 cryst.   s(33) = (     0          0         -1      )
                  (     0          1          0      )
                  (    -1          0          0      )

 cart.    s(33) = (  0.0000000  0.0000000 -1.0000000 )
                  (  0.0000000  1.0000000  0.0000000 )
                  ( -1.0000000  0.0000000  0.0000000 )


      isym = 34     inv. 180 deg rotation - cart. axis [-1,0,1]  

 cryst.   s(34) = (     0          0          1      )
                  (     0          1          0      )
                  (     1          0          0      )

 cart.    s(34) = (  0.0000000  0.0000000  1.0000000 )
                  (  0.0000000  1.0000000  0.0000000 )
                  (  1.0000000  0.0000000  0.0000000 )


      isym = 35     inv.  90 deg rotation - cart. axis [0,1,0]   

 cryst.   s(35) = (     0          0          1      )
                  (     0         -1          0      )
                  (    -1          0          0      )

 cart.    s(35) = (  0.0000000  0.0000000 -1.0000000 )
                  (  0.0000000 -1.0000000  0.0000000 )
                  (  1.0000000  0.0000000  0.0000000 )


      isym = 36     inv.  90 deg rotation - cart. axis [0,-1,0]  

 cryst.   s(36) = (     0          0         -1      )
                  (     0         -1          0      )
                  (     1          0          0      )

 cart.    s(36) = (  0.0000000  0.0000000  1.0000000 )
                  (  0.0000000 -1.0000000  0.0000000 )
                  ( -1.0000000  0.0000000  0.0000000 )


      isym = 37     inv. 180 deg rotation - cart. axis [0,1,1]   

 cryst.   s(37) = (     1          0          0      )
                  (     0          0         -1      )
                  (     0         -1          0      )

 cart.    s(37) = (  1.0000000  0.0000000  0.0000000 )
                  (  0.0000000  0.0000000 -1.0000000 )
                  (  0.0000000 -1.0000000  0.0000000 )


      isym = 38     inv. 180 deg rotation - cart. axis [0,1,-1]  

 cryst.   s(38) = (     1          0          0      )
                  (     0          0          1      )
                  (     0          1          0      )

 cart.    s(38) = (  1.0000000  0.0000000  0.0000000 )
                  (  0.0000000  0.0000000  1.0000000 )
                  (  0.0000000  1.0000000  0.0000000 )


      isym = 39     inv.  90 deg rotation - cart. axis [-1,0,0]  

 cryst.   s(39) = (    -1          0          0      )
                  (     0          0          1      )
                  (     0         -1          0      )

 cart.    s(39) = ( -1.0000000  0.0000000  0.0000000 )
                  (  0.0000000  0.0000000 -1.0000000 )
                  (  0.0000000  1.0000000  0.0000000 )


      isym = 40     inv.  90 deg rotation - cart. axis [1,0,0]   

 cryst.   s(40) = (    -1          0          0      )
                  (     0          0         -1      )
                  (     0          1          0      )

 cart.    s(40) = ( -1.0000000  0.0000000  0.0000000 )
                  (  0.0000000  0.0000000  1.0000000 )
                  (  0.0000000 -1.0000000  0.0000000 )


      isym = 41     inv. 120 deg rotation - cart. axis [-1,-1,-1]

 cryst.   s(41) = (     0          0         -1      )
                  (    -1          0          0      )
                  (     0         -1          0      )

 cart.    s(41) = (  0.0000000 -1.0000000  0.0000000 )
                  (  0.0000000  0.0000000 -1.0000000 )
                  ( -1.0000000  0.0000000  0.0000000 )


      isym = 42     inv. 120 deg rotation - cart. axis [-1,1,1]  

 cryst.   s(42) = (     0          0          1      )
                  (     1          0          0      )
                  (     0         -1          0      )

 cart.    s(42) = (  0.0000000  1.0000000  0.0000000 )
                  (  0.0000000  0.0000000 -1.0000000 )
                  (  1.0000000  0.0000000  0.0000000 )


      isym = 43     inv. 120 deg rotation - cart. axis [1,1,-1]  

 cryst.   s(43) = (     0          0          1      )
                  (    -1          0          0      )
                  (     0          1          0      )

 cart.    s(43) = (  0.0000000 -1.0000000  0.0000000 )
                  (  0.0000000  0.0000000  1.0000000 )
                  (  1.0000000  0.0000000  0.0000000 )


      isym = 44     inv. 120 deg rotation - cart. axis [1,-1,1]  

 cryst.   s(44) = (     0          0         -1      )
                  (     1          0          0      )
                  (     0          1          0      )

 cart.    s(44) = (  0.0000000  1.0000000  0.0000000 )
                  (  0.0000000  0.0000000  1.0000000 )
                  ( -1.0000000  0.0000000  0.0000000 )


      isym = 45     inv. 120 deg rotation - cart. axis [1,1,1]   

 cryst.   s(45) = (     0         -1          0      )
                  (     0          0         -1      )
                  (    -1          0          0      )

 cart.    s(45) = (  0.0000000  0.0000000 -1.0000000 )
                  ( -1.0000000  0.0000000  0.0000000 )
                  (  0.0000000 -1.0000000  0.0000000 )


      isym = 46     inv. 120 deg rotation - cart. axis [-1,1,-1] 

 cryst.   s(46) = (     0          1          0      )
                  (     0          0          1      )
                  (    -1          0          0      )

 cart.    s(46) = (  0.0000000  0.0000000 -1.0000000 )
                  (  1.0000000  0.0000000  0.0000000 )
                  (  0.0000000  1.0000000  0.0000000 )


      isym = 47     inv. 120 deg rotation - cart. axis [1,-1,-1] 

 cryst.   s(47) = (     0          1          0      )
                  (     0          0         -1      )
                  (     1          0          0      )

 cart.    s(47) = (  0.0000000  0.0000000  1.0000000 )
                  (  1.0000000  0.0000000  0.0000000 )
                  (  0.0000000 -1.0000000  0.0000000 )


      isym = 48     inv. 120 deg rotation - cart. axis [-1,-1,1] 

 cryst.   s(48) = (     0         -1          0      )
                  (     0          0          1      )
                  (     1          0          0      )

 cart.    s(48) = (  0.0000000  0.0000000  1.0000000 )
                  ( -1.0000000  0.0000000  0.0000000 )
                  (  0.0000000  1.0000000  0.0000000 )


   Cartesian axes

     site n.     atom                  positions (alat units)
         1        Ba     tau(   1) = (   0.0000000   0.0000000   0.0000000  )
         2        Ca     tau(   2) = (   0.5000000   0.5000000   0.5000000  )
         3        O      tau(   3) = (   0.5000000   0.5000000   0.0000000  )
         4        O      tau(   4) = (   0.5000000   0.0000000   0.5000000  )
         5        O      tau(   5) = (   0.0000000   0.5000000   0.5000000  )

   Crystallographic axes

     site n.     atom                  positions (cryst. coord.)
         1        Ba     tau(   1) = (  0.0000000  0.0000000  0.0000000  )
         2        Ca     tau(   2) = (  0.5000000  0.5000000  0.5000000  )
         3        O      tau(   3) = (  0.5000000  0.5000000  0.0000000  )
         4        O      tau(   4) = (  0.5000000  0.0000000  0.5000000  )
         5        O      tau(   5) = (  0.0000000  0.5000000  0.5000000  )

     number of k points=    35  Marzari-Vanderbilt smearing, width (Ry)=  0.0200
                       cart. coord. in units 2pi/alat
        k(    1) = (   0.0500000   0.0500000   0.0500000), wk =   0.0160000
        k(    2) = (   0.0500000   0.0500000   0.1500000), wk =   0.0480000
        k(    3) = (   0.0500000   0.0500000   0.2500000), wk =   0.0480000
        k(    4) = (   0.0500000   0.0500000   0.3500000), wk =   0.0480000
        k(    5) = (   0.0500000   0.0500000   0.4500000), wk =   0.0480000
        k(    6) = (   0.0500000   0.1500000   0.1500000), wk =   0.0480000
        k(    7) = (   0.0500000   0.1500000   0.2500000), wk =   0.0960000
        k(    8) = (   0.0500000   0.1500000   0.3500000), wk =   0.0960000
        k(    9) = (   0.0500000   0.1500000   0.4500000), wk =   0.0960000
        k(   10) = (   0.0500000   0.2500000   0.2500000), wk =   0.0480000
        k(   11) = (   0.0500000   0.2500000   0.3500000), wk =   0.0960000
        k(   12) = (   0.0500000   0.2500000   0.4500000), wk =   0.0960000
        k(   13) = (   0.0500000   0.3500000   0.3500000), wk =   0.0480000
        k(   14) = (   0.0500000   0.3500000   0.4500000), wk =   0.0960000
        k(   15) = (   0.0500000   0.4500000   0.4500000), wk =   0.0480000
        k(   16) = (   0.1500000   0.1500000   0.1500000), wk =   0.0160000
        k(   17) = (   0.1500000   0.1500000   0.2500000), wk =   0.0480000
        k(   18) = (   0.1500000   0.1500000   0.3500000), wk =   0.0480000
        k(   19) = (   0.1500000   0.1500000   0.4500000), wk =   0.0480000
        k(   20) = (   0.1500000   0.2500000   0.2500000), wk =   0.0480000
        k(   21) = (   0.1500000   0.2500000   0.3500000), wk =   0.0960000
        k(   22) = (   0.1500000   0.2500000   0.4500000), wk =   0.0960000
        k(   23) = (   0.1500000   0.3500000   0.3500000), wk =   0.0480000
        k(   24) = (   0.1500000   0.3500000   0.4500000), wk =   0.0960000
        k(   25) = (   0.1500000   0.4500000   0.4500000), wk =   0.0480000
        k(   26) = (   0.2500000   0.2500000   0.2500000), wk =   0.0160000
        k(   27) = (   0.2500000   0.2500000   0.3500000), wk =   0.0480000
        k(   28) = (   0.2500000   0.2500000   0.4500000), wk =   0.0480000
        k(   29) = (   0.2500000   0.3500000   0.3500000), wk =   0.0480000
        k(   30) = (   0.2500000   0.3500000   0.4500000), wk =   0.0960000
        k(   31) = (   0.2500000   0.4500000   0.4500000), wk =   0.0480000
        k(   32) = (   0.3500000   0.3500000   0.3500000), wk =   0.0160000
        k(   33) = (   0.3500000   0.3500000   0.4500000), wk =   0.0480000
        k(   34) = (   0.3500000   0.4500000   0.4500000), wk =   0.0480000
        k(   35) = (   0.4500000   0.4500000   0.4500000), wk =   0.0160000

                       cryst. coord.
        k(    1) = (   0.0500000   0.0500000   0.0500000), wk =   0.0160000
        k(    2) = (   0.0500000   0.0500000   0.1500000), wk =   0.0480000
        k(    3) = (   0.0500000   0.0500000   0.2500000), wk =   0.0480000
        k(    4) = (   0.0500000   0.0500000   0.3500000), wk =   0.0480000
        k(    5) = (   0.0500000   0.0500000   0.4500000), wk =   0.0480000
        k(    6) = (   0.0500000   0.1500000   0.1500000), wk =   0.0480000
        k(    7) = (   0.0500000   0.1500000   0.2500000), wk =   0.0960000
        k(    8) = (   0.0500000   0.1500000   0.3500000), wk =   0.0960000
        k(    9) = (   0.0500000   0.1500000   0.4500000), wk =   0.0960000
        k(   10) = (   0.0500000   0.2500000   0.2500000), wk =   0.0480000
        k(   11) = (   0.0500000   0.2500000   0.3500000), wk =   0.0960000
        k(   12) = (   0.0500000   0.2500000   0.4500000), wk =   0.0960000
        k(   13) = (   0.0500000   0.3500000   0.3500000), wk =   0.0480000
        k(   14) = (   0.0500000   0.3500000   0.4500000), wk =   0.0960000
        k(   15) = (   0.0500000   0.4500000   0.4500000), wk =   0.0480000
        k(   16) = (   0.1500000   0.1500000   0.1500000), wk =   0.0160000
        k(   17) = (   0.1500000   0.1500000   0.2500000), wk =   0.0480000
        k(   18) = (   0.1500000   0.1500000   0.3500000), wk =   0.0480000
        k(   19) = (   0.1500000   0.1500000   0.4500000), wk =   0.0480000
        k(   20) = (   0.1500000   0.2500000   0.2500000), wk =   0.0480000
        k(   21) = (   0.1500000   0.2500000   0.3500000), wk =   0.0960000
        k(   22) = (   0.1500000   0.2500000   0.4500000), wk =   0.0960000
        k(   23) = (   0.1500000   0.3500000   0.3500000), wk =   0.0480000
        k(   24) = (   0.1500000   0.3500000   0.4500000), wk =   0.0960000
        k(   25) = (   0.1500000   0.4500000   0.4500000), wk =   0.0480000
        k(   26) = (   0.2500000   0.2500000   0.2500000), wk =   0.0160000
        k(   27) = (   0.2500000   0.2500000   0.3500000), wk =   0.0480000
        k(   28) = (   0.2500000   0.2500000   0.4500000), wk =   0.0480000
        k(   29) = (   0.2500000   0.3500000   0.3500000), wk =   0.0480000
        k(   30) = (   0.2500000   0.3500000   0.4500000), wk =   0.0960000
        k(   31) = (   0.2500000   0.4500000   0.4500000), wk =   0.0480000
        k(   32) = (   0.3500000   0.3500000   0.3500000), wk =   0.0160000
        k(   33) = (   0.3500000   0.3500000   0.4500000), wk =   0.0480000
        k(   34) = (   0.3500000   0.4500000   0.4500000), wk =   0.0480000
        k(   35) = (   0.4500000   0.4500000   0.4500000), wk =   0.0160000

     Dense  grid:   273785 G-vectors     FFT dimensions: (  81,  81,  81)

     Smooth grid:    69239 G-vectors     FFT dimensions: (  54,  54,  54)

     Dynamical RAM for                 wfc:       0.15 MB

     Dynamical RAM for     wfc (w. buffer):       5.46 MB

     Dynamical RAM for           str. fact:       0.63 MB

     Dynamical RAM for           local pot:       0.00 MB

     Dynamical RAM for          nlocal pot:       0.40 MB

     Dynamical RAM for                qrad:       9.63 MB

     Dynamical RAM for          rho,v,vnew:       1.38 MB

     Dynamical RAM for               rhoin:       0.46 MB

     Dynamical RAM for            rho*nmix:       3.34 MB

     Dynamical RAM for           G-vectors:       0.81 MB

     Dynamical RAM for          h,s,v(r/c):       0.10 MB

     Dynamical RAM for          <psi|beta>:       0.02 MB

     Dynamical RAM for                 psi:       0.30 MB

     Dynamical RAM for                hpsi:       0.30 MB

     Dynamical RAM for                spsi:       0.30 MB

     Dynamical RAM for      wfcinit/wfcrot:       0.37 MB

     Dynamical RAM for           addusdens:      43.45 MB

     Dynamical RAM for          addusforce:      44.41 MB

     Dynamical RAM for         addusstress:      45.96 MB

     Estimated static dynamical RAM per process >      20.85 MB

     Estimated max dynamical RAM per process >      70.15 MB

     Estimated total dynamical RAM >       1.37 GB

     Initial potential from superposition of free atoms

     starting charge      37.9791, renormalised to      38.0000
     Starting wfcs are   27 randomized atomic wfcs
     Checking if some PAW data can be deallocated... 
       PAW data deallocated on   16 nodes for type:  1
       PAW data deallocated on    8 nodes for type:  3

     total cpu time spent up to now is        2.8 secs

     Self-consistent Calculation

     iteration #  1     ecut=    90.00 Ry     beta= 0.40
     Davidson diagonalization with overlap

---- Real-time Memory Report at c_bands before calling an iterative solver
            96 MiB given to the printing process from OS
             0 MiB allocation reported by mallinfo(arena+hblkhd)
         25114 MiB available memory on the node where the printing process lives
------------------
     ethr =  1.00E-02,  avg # of iterations =  3.1

     total cpu time spent up to now is        5.4 secs

     total energy              =    -628.10683720 Ry
     estimated scf accuracy    <       0.66731933 Ry

     iteration #  2     ecut=    90.00 Ry     beta= 0.40
     Davidson diagonalization with overlap

---- Real-time Memory Report at c_bands before calling an iterative solver
           114 MiB given to the printing process from OS
             0 MiB allocation reported by mallinfo(arena+hblkhd)
         24862 MiB available memory on the node where the printing process lives
------------------
     ethr =  1.76E-03,  avg # of iterations =  5.0

     total cpu time spent up to now is        8.8 secs

     total energy              =    -628.29002419 Ry
     estimated scf accuracy    <       0.05652098 Ry

     iteration #  3     ecut=    90.00 Ry     beta= 0.40
     Davidson diagonalization with overlap

---- Real-time Memory Report at c_bands before calling an iterative solver
           115 MiB given to the printing process from OS
             0 MiB allocation reported by mallinfo(arena+hblkhd)
         24952 MiB available memory on the node where the printing process lives
------------------
     ethr =  1.49E-04,  avg # of iterations = 11.1

     total cpu time spent up to now is       12.1 secs

     total energy              =    -628.29680350 Ry
     estimated scf accuracy    <       0.00932862 Ry

     iteration #  4     ecut=    90.00 Ry     beta= 0.40
     Davidson diagonalization with overlap

---- Real-time Memory Report at c_bands before calling an iterative solver
           115 MiB given to the printing process from OS
             0 MiB allocation reported by mallinfo(arena+hblkhd)
         25007 MiB available memory on the node where the printing process lives
------------------
     ethr =  2.45E-05,  avg # of iterations =  4.3

     total cpu time spent up to now is       15.2 secs

     total energy              =    -628.29830331 Ry
     estimated scf accuracy    <       0.00201756 Ry

     iteration #  5     ecut=    90.00 Ry     beta= 0.40
     Davidson diagonalization with overlap

---- Real-time Memory Report at c_bands before calling an iterative solver
           115 MiB given to the printing process from OS
             0 MiB allocation reported by mallinfo(arena+hblkhd)
         24976 MiB available memory on the node where the printing process lives
------------------
     ethr =  5.31E-06,  avg # of iterations =  5.0

     total cpu time spent up to now is       17.9 secs

     total energy              =    -628.29867570 Ry
     estimated scf accuracy    <       0.00013423 Ry

     iteration #  6     ecut=    90.00 Ry     beta= 0.40
     Davidson diagonalization with overlap

---- Real-time Memory Report at c_bands before calling an iterative solver
           115 MiB given to the printing process from OS
             0 MiB allocation reported by mallinfo(arena+hblkhd)
         25004 MiB available memory on the node where the printing process lives
------------------
     ethr =  3.53E-07,  avg # of iterations =  2.3

     total cpu time spent up to now is       20.2 secs

     total energy              =    -628.29870237 Ry
     estimated scf accuracy    <       0.00001795 Ry

     iteration #  7     ecut=    90.00 Ry     beta= 0.40
     Davidson diagonalization with overlap

---- Real-time Memory Report at c_bands before calling an iterative solver
           115 MiB given to the printing process from OS
             0 MiB allocation reported by mallinfo(arena+hblkhd)
         24998 MiB available memory on the node where the printing process lives
------------------
     ethr =  4.72E-08,  avg # of iterations =  4.3

     total cpu time spent up to now is       23.7 secs

     total energy              =    -628.29869109 Ry
     estimated scf accuracy    <       0.00005034 Ry

     iteration #  8     ecut=    90.00 Ry     beta= 0.40
     Davidson diagonalization with overlap

---- Real-time Memory Report at c_bands before calling an iterative solver
           115 MiB given to the printing process from OS
             0 MiB allocation reported by mallinfo(arena+hblkhd)
         24971 MiB available memory on the node where the printing process lives
------------------
     ethr =  4.72E-08,  avg # of iterations =  4.3

     total cpu time spent up to now is       26.8 secs

     total energy              =    -628.29871050 Ry
     estimated scf accuracy    <       0.00002413 Ry

     iteration #  9     ecut=    90.00 Ry     beta= 0.40
     Davidson diagonalization with overlap

---- Real-time Memory Report at c_bands before calling an iterative solver
           115 MiB given to the printing process from OS
             0 MiB allocation reported by mallinfo(arena+hblkhd)
         24968 MiB available memory on the node where the printing process lives
------------------
     ethr =  4.72E-08,  avg # of iterations =  2.0

     total cpu time spent up to now is       29.3 secs

     total energy              =    -628.29871194 Ry
     estimated scf accuracy    <       0.00000454 Ry

     iteration # 10     ecut=    90.00 Ry     beta= 0.40
     Davidson diagonalization with overlap

---- Real-time Memory Report at c_bands before calling an iterative solver
           115 MiB given to the printing process from OS
             0 MiB allocation reported by mallinfo(arena+hblkhd)
         24970 MiB available memory on the node where the printing process lives
------------------
     ethr =  1.19E-08,  avg # of iterations =  1.9

     total cpu time spent up to now is       31.9 secs

     total energy              =    -628.29871127 Ry
     estimated scf accuracy    <       0.00000207 Ry

     iteration # 11     ecut=    90.00 Ry     beta= 0.40
     Davidson diagonalization with overlap

---- Real-time Memory Report at c_bands before calling an iterative solver
           116 MiB given to the printing process from OS
             0 MiB allocation reported by mallinfo(arena+hblkhd)
         24994 MiB available memory on the node where the printing process lives
------------------
     ethr =  5.45E-09,  avg # of iterations =  3.0

     total cpu time spent up to now is       34.5 secs

     End of self-consistent calculation

          k = 0.0500 0.0500 0.0500 (  8643 PWs)   bands (ev):

   -30.3733 -20.0256 -11.7448 -11.7435 -11.7435  -9.8911  -9.5697  -9.5697
    -5.0733  -5.0733  -5.0608   4.4980   4.5663   4.5663   5.0071   5.0071
     5.0775   5.6790   5.7290   5.7290  10.3645  10.3645  10.7060

     occupation numbers 
     1.0000   1.0000   1.0000   1.0000   1.0000   1.0000   1.0000   1.0000
     1.0000   1.0000   1.0000   1.0000   1.0002   1.0002   1.0592   1.0592
     1.0796   0.0872   0.0496   0.0496   0.0000   0.0000   0.0000

          k = 0.0500 0.0500 0.1500 (  8651 PWs)   bands (ev):

   -30.3726 -20.0225 -11.9030 -11.7434 -11.7420  -9.8523  -9.5674  -9.4002
    -5.0747  -5.0682  -5.0439   4.3800   4.5448   4.5615   4.8698   4.9407
     5.0584   5.4118   5.6829   5.6989  10.5746  10.6010  11.0578

     occupation numbers 
     1.0000   1.0000   1.0000   1.0000   1.0000   1.0000   1.0000   1.0000
     1.0000   1.0000   1.0000   1.0000   1.0001   1.0002   1.0189   1.0370
     1.0752   0.6342   0.0836   0.0701   0.0000   0.0000   0.0000

          k = 0.0500 0.0500 0.2500 (  8643 PWs)   bands (ev):

   -30.3714 -20.0176 -12.1121 -11.7420 -11.7396  -9.8584  -9.5637  -9.1015
    -5.0662  -5.0599  -5.0274   4.2284   4.5017   4.5071   4.7106   4.8111
     4.9871   5.0306   5.6346   5.6524  10.9269  10.9794  11.7210

     occupation numbers 
     1.0000   1.0000   1.0000   1.0000   1.0000   1.0000   1.0000   1.0000
     1.0000   1.0000   1.0000   1.0000   1.0000   1.0001   1.0023   1.0095
     1.0523   1.0671   0.1367   0.1148   0.0000   0.0000   0.0000

          k = 0.0500 0.0500 0.3500 (  8673 PWs)   bands (ev):

   -30.3703 -20.0126 -12.2852 -11.7405 -11.7372  -9.8826  -9.5600  -8.8154
    -5.0516  -5.0514  -5.0172   4.0908   4.4183   4.4458   4.5202   4.5807
     4.8741   4.9140   5.5883   5.6086  11.2999  11.3731  12.2701

     occupation numbers 
     1.0000   1.0000   1.0000   1.0000   1.0000   1.0000   1.0000   1.0000
     1.0000   1.0000   1.0000   1.0000   1.0000   1.0000   1.0001   1.0002
     1.0197   1.0293   0.2071   0.1738   0.0000   0.0000   0.0000

          k = 0.0500 0.0500 0.4500 (  8677 PWs)   bands (ev):

   -30.3695 -20.0095 -12.3801 -11.7396 -11.7357  -9.9001  -9.5577  -8.6454
    -5.0465  -5.0379  -5.0151   4.0051   4.2764   4.3837   4.4042   4.5101
     4.8389   4.8727   5.5604   5.5828  11.5445  11.6328  12.5860

     occupation numbers 
     1.0000   1.0000   1.0000   1.0000   1.0000   1.0000   1.0000   1.0000
     1.0000   1.0000   1.0000   1.0000   1.0000   1.0000   1.0000   1.0001
     1.0133   1.0194   0.2594   0.2169   0.0000   0.0000   0.0000

          k = 0.0500 0.1500 0.1500 (  8648 PWs)   bands (ev):

   -30.3719 -20.0194 -11.9049 -11.9009 -11.7415  -9.7871  -9.4490  -9.3681
    -5.0879  -5.0657  -5.0236   4.2344   4.5315   4.5920   4.7130   4.8633
     5.1116   5.2929   5.5404   5.6592  10.7434  10.8428  11.3031

     occupation numbers 
     1.0000   1.0000   1.0000   1.0000   1.0000   1.0000   1.0000   1.0000
     1.0000   1.0000   1.0000   1.0000   1.0001   1.0003   1.0024   1.0176
     1.0833   0.9251   0.3015   0.1072   0.0000   0.0000   0.0000

          k = 0.0500 0.1500 0.2500 (  8653 PWs)   bands (ev):

   -30.3707 -20.0145 -12.1131 -11.9028 -11.7395  -9.7743  -9.4196  -9.1058
    -5.0913  -5.0582  -5.0117   4.0760   4.4836   4.5277   4.5592   4.7481
     4.9887   5.1375   5.4634   5.6059  11.0466  11.2379  11.7862

     occupation numbers 
     1.0000   1.0000   1.0000   1.0000   1.0000   1.0000   1.0000   1.0000
     1.0000   1.0000   1.0000   1.0000   1.0000   1.0001   1.0002   1.0041
     1.0529   1.0813   0.4923   0.1780   0.0000   0.0000   0.0000

          k = 0.0500 0.1500 0.3500 (  8670 PWs)   bands (ev):

   -30.3695 -20.0095 -12.2870 -11.9029 -11.7375  -9.7855  -9.4185  -8.8228
    -5.0823  -5.0501  -5.0129   3.9592   4.2759   4.4215   4.4919   4.5795
     4.8555   5.1412   5.4016   5.5554  11.4037  11.6324  12.3315

     occupation numbers 
     1.0000   1.0000   1.0000   1.0000   1.0000   1.0000   1.0000   1.0000
     1.0000   1.0000   1.0000   1.0000   1.0000   1.0000   1.0000   1.0002
     1.0161   1.0806   0.6623   0.2696   0.0000   0.0000   0.0000

          k = 0.0500 0.1500 0.4500 (  8670 PWs)   bands (ev):

   -30.3688 -20.0064 -12.3823 -11.9030 -11.7362  -9.7958  -9.4183  -8.6534
    -5.0689  -5.0423  -5.0242   3.9307   4.0372   4.3728   4.4525   4.4898
     4.8184   5.1589   5.3511   5.5257  11.6585  11.8910  12.6434

     occupation numbers 
     1.0000   1.0000   1.0000   1.0000   1.0000   1.0000   1.0000   1.0000
     1.0000   1.0000   1.0000   1.0000   1.0000   1.0000   1.0000   1.0000
     1.0104   1.0756   0.7954   0.3348   0.0000   0.0000   0.0000

          k = 0.0500 0.2500 0.2500 (  8649 PWs)   bands (ev):

   -30.3695 -20.0095 -12.1167 -12.1131 -11.7375  -9.7395  -9.1612  -9.0833
    -5.1103  -5.0539  -5.0093   3.8923   4.3173   4.4739   4.5490   4.6738
     4.8841   5.1162   5.3960   5.5416  11.2733  11.6956  11.9811

     occupation numbers 
     1.0000   1.0000   1.0000   1.0000   1.0000   1.0000   1.0000   1.0000
     1.0000   1.0000   1.0000   1.0000   1.0000   1.0000   1.0001   1.0013
     1.0219   1.0833   0.6777   0.2989   0.0000   0.0000   0.0000

          k = 0.0500 0.2500 0.3500 (  8657 PWs)   bands (ev):

   -30.3684 -20.0045 -12.2900 -12.1168 -11.7354  -9.7319  -9.1342  -8.8343
    -5.1132  -5.0568  -5.0152   3.7428   4.1094   4.4100   4.4963   4.5555
     4.8207   5.0903   5.4124   5.4804  11.5801  12.1058  12.2767

     occupation numbers 
     1.0000   1.0000   1.0000   1.0000   1.0000   1.0000   1.0000   1.0000
     1.0000   1.0000   1.0000   1.0000   1.0000   1.0000   1.0000   1.0002
     1.0108   1.0817   0.6326   0.4469   0.0000   0.0000   0.0000

          k = 0.0500 0.2500 0.4500 (  8664 PWs)   bands (ev):

   -30.3676 -20.0014 -12.3858 -12.1180 -11.7342  -9.7311  -9.1375  -8.6664
    -5.1014  -5.0729  -5.0179   3.6705   3.9256   4.3649   4.4674   4.4873
     4.8234   5.0760   5.4172   5.4441  11.8451  12.3249  12.4291

     occupation numbers 
     1.0000   1.0000   1.0000   1.0000   1.0000   1.0000   1.0000   1.0000
     1.0000   1.0000   1.0000   1.0000   1.0000   1.0000   1.0000   1.0000
     1.0111   1.0793   0.6192   0.5449   0.0000   0.0000   0.0000

          k = 0.0500 0.3500 0.3500 (  8671 PWs)   bands (ev):

   -30.3672 -19.9994 -12.2938 -12.2923 -11.7334  -9.7094  -8.8670  -8.8307
    -5.1309  -5.0806  -5.0125   3.5485   3.9579   4.3955   4.4077   4.4843
     4.8219   5.0213   5.4080   5.5241  11.7929  12.1885  12.5772

     occupation numbers 
     1.0000   1.0000   1.0000   1.0000   1.0000   1.0000   1.0000   1.0000
     1.0000   1.0000   1.0000   1.0000   1.0000   1.0000   1.0000   1.0000
     1.0109   1.0640   0.6448   0.3383   0.0000   0.0000   0.0000

          k = 0.0500 0.3500 0.4500 (  8655 PWs)   bands (ev):

   -30.3665 -19.9963 -12.3894 -12.2950 -11.7321  -9.6998  -8.8565  -8.6795
    -5.1297  -5.1089  -5.0089   3.4426   3.8263   4.3414   4.3858   4.4260
     4.8871   4.9838   5.3643   5.5781  11.9757  12.1371  12.7589

     occupation numbers 
     1.0000   1.0000   1.0000   1.0000   1.0000   1.0000   1.0000   1.0000
     1.0000   1.0000   1.0000   1.0000   1.0000   1.0000   1.0000   1.0000
     1.0226   1.0512   0.7620   0.2254   0.0000   0.0000   0.0000

          k = 0.0500 0.4500 0.4500 (  8657 PWs)   bands (ev):

   -30.3658 -19.9932 -12.3918 -12.3916 -11.7308  -9.6853  -8.6901  -8.6856
    -5.1426  -5.1350  -5.0031   3.3207   3.7308   4.2739   4.3634   4.3739
     4.9531   4.9842   5.3147   5.6556  11.8473  12.2534  12.8406

     occupation numbers 
     1.0000   1.0000   1.0000   1.0000   1.0000   1.0000   1.0000   1.0000
     1.0000   1.0000   1.0000   1.0000   1.0000   1.0000   1.0000   1.0000
     1.0409   1.0513   0.8804   0.1112   0.0000   0.0000   0.0000

          k = 0.1500 0.1500 0.1500 (  8634 PWs)   bands (ev):

   -30.3712 -20.0164 -11.9093 -11.8989 -11.8989  -9.6536  -9.3650  -9.3650
    -5.0893  -5.0893  -5.0005   4.0943   4.5620   4.5620   4.7029   4.7029
     5.1677   5.1902   5.5173   5.5173  10.9587  10.9587  11.4866

     occupation numbers 
     1.0000   1.0000   1.0000   1.0000   1.0000   1.0000   1.0000   1.0000
     1.0000   1.0000   1.0000   1.0000   1.0002   1.0002   1.0021   1.0021
     1.0720   1.0592   0.3545   0.3545   0.0000   0.0000   0.0000

          k = 0.1500 0.1500 0.2500 (  8641 PWs)   bands (ev):

   -30.3700 -20.0114 -12.1136 -11.9075 -11.8958  -9.6059  -9.3601  -9.1066
    -5.0994  -5.0916  -4.9910   3.9507   4.4580   4.5030   4.6034   4.6047
     4.9735   5.2147   5.4093   5.4766  11.2121  11.3332  11.8377

     occupation numbers 
     1.0000   1.0000   1.0000   1.0000   1.0000   1.0000   1.0000   1.0000
     1.0000   1.0000   1.0000   1.0000   1.0000   1.0001   1.0004   1.0004
     1.0477   1.0389   0.6410   0.4569   0.0000   0.0000   0.0000

          k = 0.1500 0.1500 0.3500 (  8649 PWs)   bands (ev):

   -30.3688 -20.0065 -12.2879 -11.9094 -11.8926  -9.6111  -9.3551  -8.8270
    -5.0940  -5.0909  -5.0000   3.8629   4.2762   4.3392   4.4102   4.5625
     4.9883   5.2041   5.3190   5.4310  11.5514  11.7143  12.2552

     occupation numbers 
     1.0000   1.0000   1.0000   1.0000   1.0000   1.0000   1.0000   1.0000
     1.0000   1.0000   1.0000   1.0000   1.0000   1.0000   1.0000   1.0002
     1.0527   1.0486   0.8711   0.5809   0.0000   0.0000   0.0000

          k = 0.1500 0.1500 0.4500 (  8685 PWs)   bands (ev):

   -30.3681 -20.0034 -12.3834 -11.9106 -11.8907  -9.6199  -9.3520  -8.6583
    -5.0955  -5.0706  -5.0205   3.8664   3.9998   4.2743   4.3427   4.5382
     5.0687   5.1909   5.2269   5.4005  11.8236  11.9505  12.5271

     occupation numbers 
     1.0000   1.0000   1.0000   1.0000   1.0000   1.0000   1.0000   1.0000
     1.0000   1.0000   1.0000   1.0000   1.0000   1.0000   1.0000   1.0001
     1.0777   1.0587   1.0261   0.6653   0.0000   0.0000   0.0000

          k = 0.1500 0.2500 0.2500 (  8646 PWs)   bands (ev):

   -30.3688 -20.0065 -12.1178 -12.1106 -11.8996  -9.5194  -9.1533  -9.0787
    -5.1222  -5.1030  -4.9899   3.8142   4.3082   4.4429   4.5318   4.6276
     4.8123   5.2489   5.3747   5.4012  11.4327  11.6443  11.9813

     occupation numbers 
     1.0000   1.0000   1.0000   1.0000   1.0000   1.0000   1.0000   1.0000
     1.0000   1.0000   1.0000   1.0000   1.0000   1.0000   1.0001   1.0006
     1.0097   0.9984   0.7349   0.6635   0.0000   0.0000   0.0000

          k = 0.1500 0.2500 0.3500 (  8657 PWs)   bands (ev):

   -30.3677 -20.0016 -12.2894 -12.1150 -11.8979  -9.5061  -9.1231  -8.8335
    -5.1310  -5.1094  -5.0077   3.7242   4.1161   4.3358   4.3744   4.5777
     4.8599   5.2018   5.3416   5.4051  11.7213  11.9918  12.1752

     occupation numbers 
     1.0000   1.0000   1.0000   1.0000   1.0000   1.0000   1.0000   1.0000
     1.0000   1.0000   1.0000   1.0000   1.0000   1.0000   1.0000   1.0002
     1.0169   1.0505   0.8187   0.6527   0.0000   0.0000   0.0000

          k = 0.1500 0.2500 0.4500 (  8663 PWs)   bands (ev):

   -30.3669 -19.9985 -12.3853 -12.1156 -11.8967  -9.5048  -9.1228  -8.6664
    -5.1306  -5.1073  -5.0302   3.7060   3.9081   4.2532   4.3129   4.5610
     4.9568   5.1309   5.3083   5.4153  11.9972  12.2020  12.2826

     occupation numbers 
     1.0000   1.0000   1.0000   1.0000   1.0000   1.0000   1.0000   1.0000
     1.0000   1.0000   1.0000   1.0000   1.0000   1.0000   1.0000   1.0002
     1.0421   1.0823   0.8940   0.6246   0.0000   0.0000   0.0000

          k = 0.1500 0.3500 0.3500 (  8653 PWs)   bands (ev):

   -30.3665 -19.9966 -12.2926 -12.2892 -11.8954  -9.4778  -8.8629  -8.8242
    -5.1535  -5.1284  -5.0282   3.6027   3.9543   4.3174   4.3233   4.4448
     4.8686   5.1788   5.2714   5.5247  11.8753  12.1517  12.2934

     occupation numbers 
     1.0000   1.0000   1.0000   1.0000   1.0000   1.0000   1.0000   1.0000
     1.0000   1.0000   1.0000   1.0000   1.0000   1.0000   1.0000   1.0000
     1.0186   1.0664   0.9639   0.3370   0.0000   0.0000   0.0000

          k = 0.1500 0.3500 0.4500 (  8668 PWs)   bands (ev):

   -30.3658 -19.9936 -12.3872 -12.2919 -11.8937  -9.4679  -8.8483  -8.6747
    -5.1586  -5.1434  -5.0460   3.5412   3.8136   4.2660   4.2829   4.3981
     4.9551   5.1390   5.2311   5.5818  11.9401  12.2271  12.4765

     occupation numbers 
     1.0000   1.0000   1.0000   1.0000   1.0000   1.0000   1.0000   1.0000
     1.0000   1.0000   1.0000   1.0000   1.0000   1.0000   1.0000   1.0000
     1.0415   1.0810   1.0213   0.2187   0.0000   0.0000   0.0000

          k = 0.1500 0.4500 0.4500 (  8659 PWs)   bands (ev):

   -30.3651 -19.9906 -12.3886 -12.3882 -11.8918  -9.4532  -8.6826  -8.6778
    -5.1719  -5.1668  -5.0579   3.4508   3.7233   4.2600   4.2638   4.2868
     5.0310   5.1526   5.1696   5.6631  11.7774  12.4075  12.5394

     occupation numbers 
     1.0000   1.0000   1.0000   1.0000   1.0000   1.0000   1.0000   1.0000
     1.0000   1.0000   1.0000   1.0000   1.0000   1.0000   1.0000   1.0000
     1.0672   1.0777   1.0711   0.1030   0.0000   0.0000   0.0000

          k = 0.2500 0.2500 0.2500 (  8658 PWs)   bands (ev):

   -30.3677 -20.0017 -12.1252 -12.1064 -12.1064  -9.2794  -9.0712  -9.0712
    -5.1417  -5.1417  -4.9988   3.7289   4.2937   4.2937   4.5156   4.6223
     4.6223   5.3253   5.3253   5.3791  11.7051  11.7051  12.0015

     occupation numbers 
     1.0000   1.0000   1.0000   1.0000   1.0000   1.0000   1.0000   1.0000
     1.0000   1.0000   1.0000   1.0000   1.0000   1.0000   1.0001   1.0005
     1.0005   0.8569   0.8569   0.7232   0.0000   0.0000   0.0000

          k = 0.2500 0.2500 0.3500 (  8661 PWs)   bands (ev):

   -30.3665 -19.9968 -12.2885 -12.1202 -12.1022  -9.2294  -9.0636  -8.8317
    -5.1613  -5.1572  -5.0301   3.6879   4.1363   4.1821   4.3088   4.6252
     4.6544   5.2950   5.3229   5.4362  11.9156  11.9513  12.0521

     occupation numbers 
     1.0000   1.0000   1.0000   1.0000   1.0000   1.0000   1.0000   1.0000
     1.0000   1.0000   1.0000   1.0000   1.0000   1.0000   1.0000   1.0006
     1.0009   0.9210   0.8625   0.5666   0.0000   0.0000   0.0000

          k = 0.2500 0.2500 0.4500 (  8658 PWs)   bands (ev):

   -30.3658 -19.9938 -12.3844 -12.1214 -12.0996  -9.2255  -9.0589  -8.6665
    -5.1735  -5.1520  -5.0638   3.7149   3.8813   4.1253   4.2601   4.6280
     4.7013   5.2735   5.3216   5.4573  12.0669  12.0984  12.2255

     occupation numbers 
     1.0000   1.0000   1.0000   1.0000   1.0000   1.0000   1.0000   1.0000
     1.0000   1.0000   1.0000   1.0000   1.0000   1.0000   1.0000   1.0006
     1.0020   0.9604   0.8654   0.5087   0.0000   0.0000   0.0000

          k = 0.2500 0.3500 0.3500 (  8652 PWs)   bands (ev):

   -30.3653 -19.9921 -12.2908 -12.2841 -12.1076  -9.1518  -8.8538  -8.8135
    -5.1902  -5.1862  -5.0715   3.6623   3.9823   4.1966   4.2068   4.4451
     4.6714   5.3146   5.3482   5.5347  11.8970  12.0366  12.0523

     occupation numbers 
     1.0000   1.0000   1.0000   1.0000   1.0000   1.0000   1.0000   1.0000
     1.0000   1.0000   1.0000   1.0000   1.0000   1.0000   1.0000   1.0000
     1.0012   0.8806   0.8027   0.3142   0.0000   0.0000   0.0000

          k = 0.2500 0.3500 0.4500 (  8655 PWs)   bands (ev):

   -30.3646 -19.9892 -12.3835 -12.2869 -12.1057  -9.1397  -8.8337  -8.6669
    -5.2064  -5.1935  -5.1088   3.6789   3.8009   4.1279   4.2047   4.3998
     4.6958   5.3197   5.3632   5.5920  11.8426  12.0699  12.1544

     occupation numbers 
     1.0000   1.0000   1.0000   1.0000   1.0000   1.0000   1.0000   1.0000
     1.0000   1.0000   1.0000   1.0000   1.0000   1.0000   1.0000   1.0000
     1.0019   0.8694   0.7649   0.2007   0.0000   0.0000   0.0000

          k = 0.2500 0.4500 0.4500 (  8634 PWs)   bands (ev):

   -30.3639 -19.9863 -12.3834 -12.3826 -12.1033  -9.1230  -8.6703  -8.6648
    -5.2194  -5.2182  -5.1439   3.6541   3.7025   4.1544   4.1563   4.2827
     4.7129   5.3625   5.3734   5.6756  11.6650  12.1070  12.1081

     occupation numbers 
     1.0000   1.0000   1.0000   1.0000   1.0000   1.0000   1.0000   1.0000
     1.0000   1.0000   1.0000   1.0000   1.0000   1.0000   1.0000   1.0000
     1.0024   0.7666   0.7382   0.0905   0.0000   0.0000   0.0000

          k = 0.3500 0.3500 0.3500 (  8634 PWs)   bands (ev):

   -30.3642 -19.9876 -12.2929 -12.2790 -12.2790  -8.9001  -8.8027  -8.8027
    -5.2270  -5.2270  -5.1297   3.6888   3.9840   4.1032   4.1032   4.4500
     4.4500   5.4446   5.4446   5.5767  11.8103  11.8945  11.8945

     occupation numbers 
     1.0000   1.0000   1.0000   1.0000   1.0000   1.0000   1.0000   1.0000
     1.0000   1.0000   1.0000   1.0000   1.0000   1.0000   1.0000   1.0000
     1.0000   0.5433   0.5433   0.2280   0.0000   0.0000   0.0000

          k = 0.3500 0.3500 0.4500 (  8653 PWs)   bands (ev):

   -30.3635 -19.9848 -12.3799 -12.2870 -12.2759  -8.8664  -8.7959  -8.6590
    -5.2498  -5.2396  -5.1773   3.6926   3.8549   4.0556   4.1266   4.3727
     4.4535   5.4693   5.5235   5.6252  11.7176  11.8225  11.8415

     occupation numbers 
     1.0000   1.0000   1.0000   1.0000   1.0000   1.0000   1.0000   1.0000
     1.0000   1.0000   1.0000   1.0000   1.0000   1.0000   1.0000   1.0000
     1.0000   0.4764   0.3397   0.1493   0.0000   0.0000   0.0000

          k = 0.3500 0.4500 0.4500 (  8643 PWs)   bands (ev):

   -30.3628 -19.9820 -12.3782 -12.3770 -12.2783  -8.8244  -8.6577  -8.6516
    -5.2685  -5.2668  -5.2279   3.6286   3.8715   4.0702   4.0751   4.2857
     4.4239   5.5609   5.5696   5.6889  11.5544  11.7165  11.7221

     occupation numbers 
     1.0000   1.0000   1.0000   1.0000   1.0000   1.0000   1.0000   1.0000
     1.0000   1.0000   1.0000   1.0000   1.0000   1.0000   1.0000   1.0000
     1.0000   0.2586   0.2414   0.0784   0.0000   0.0000   0.0000

          k = 0.4500 0.4500 0.4500 (  8621 PWs)   bands (ev):

   -30.3621 -19.9794 -12.3757 -12.3735 -12.3735  -8.6558  -8.6433  -8.6433
    -5.2962  -5.2962  -5.2817   3.5540   3.9901   4.0332   4.0332   4.2878
     4.2878   5.6796   5.6796   5.7036  11.4791  11.4987  11.4987

     occupation numbers 
     1.0000   1.0000   1.0000   1.0000   1.0000   1.0000   1.0000   1.0000
     1.0000   1.0000   1.0000   1.0000   1.0000   1.0000   1.0000   1.0000
     1.0000   0.0867   0.0867   0.0665   0.0000   0.0000   0.0000

     the Fermi energy is     5.4984 ev

!    total energy              =    -628.29871188 Ry
     estimated scf accuracy    <       0.00000007 Ry
     smearing contrib. (-TS)   =      -0.00194501 Ry
     internal energy E=F+TS    =    -628.29676687 Ry

     The total energy is F=E-TS. E is the sum of the following terms:
     one-electron contribution =     -64.50577209 Ry
     hartree contribution      =      52.33486466 Ry
     xc contribution           =     -53.70904996 Ry
     ewald contribution        =    -166.45952522 Ry
     one-center paw contrib.   =    -395.95728427 Ry
      -> PAW hartree energy AE =      28.30162261 Ry
      -> PAW hartree energy PS =     -28.18470320 Ry
      -> PAW xc energy AE      =    -387.72685790 Ry
      -> PAW xc energy PS      =      19.01412637 Ry
      -> total E_H with PAW    =      52.45178407 Ry
      -> total E_XC with PAW   =    -422.42178149 Ry

     convergence has been achieved in  11 iterations

     Forces acting on atoms (cartesian axes, Ry/au):

     atom    1 type  1   force =     0.00000000    0.00000000    0.00000000
     atom    2 type  2   force =     0.00000000    0.00000000    0.00000000
     atom    3 type  3   force =     0.00000000    0.00000000    0.00000000
     atom    4 type  3   force =     0.00000000    0.00000000    0.00000000
     atom    5 type  3   force =     0.00000000    0.00000000    0.00000000
     The non-local contrib.  to forces
     atom    1 type  1   force =     0.00000000    0.00000000    0.00000000
     atom    2 type  2   force =     0.00000000    0.00000000    0.00000000
     atom    3 type  3   force =     0.00000000    0.00000000    0.00000000
     atom    4 type  3   force =     0.00000000    0.00000000    0.00000000
     atom    5 type  3   force =     0.00000000    0.00000000    0.00000000
     The ionic contribution  to forces
     atom    1 type  1   force =    -0.00000000   -0.00000000   -0.00000000
     atom    2 type  2   force =     0.00000000    0.00000000    0.00000000
     atom    3 type  3   force =     0.00000000    0.00000000   -0.00000000
     atom    4 type  3   force =     0.00000000   -0.00000000    0.00000000
     atom    5 type  3   force =    -0.00000000    0.00000000    0.00000000
     The local contribution  to forces
     atom    1 type  1   force =     0.00000000   -0.00000000    0.00000000
     atom    2 type  2   force =     0.00000000    0.00000000    0.00000000
     atom    3 type  3   force =     0.00000000    0.00000000    0.00000000
     atom    4 type  3   force =     0.00000000    0.00000000    0.00000000
     atom    5 type  3   force =     0.00000000    0.00000000    0.00000000
     The core correction contribution to forces
     atom    1 type  1   force =     0.00000000    0.00000000    0.00000000
     atom    2 type  2   force =    -0.00000000   -0.00000000   -0.00000000
     atom    3 type  3   force =     0.00000000   -0.00000000    0.00000000
     atom    4 type  3   force =    -0.00000000    0.00000000   -0.00000000
     atom    5 type  3   force =     0.00000000   -0.00000000   -0.00000000
     The Hubbard contrib.    to forces
     atom    1 type  1   force =     0.00000000    0.00000000    0.00000000
     atom    2 type  2   force =     0.00000000    0.00000000    0.00000000
     atom    3 type  3   force =     0.00000000    0.00000000    0.00000000
     atom    4 type  3   force =     0.00000000    0.00000000    0.00000000
     atom    5 type  3   force =     0.00000000    0.00000000    0.00000000
     The SCF correction term to forces
     atom    1 type  1   force =    -0.00000000   -0.00000000    0.00000000
     atom    2 type  2   force =    -0.00000000   -0.00000000    0.00000000
     atom    3 type  3   force =    -0.00000000   -0.00000000    0.00000000
     atom    4 type  3   force =     0.00000000   -0.00000000    0.00000000
     atom    5 type  3   force =     0.00000000   -0.00000000   -0.00000000

     Total force =     0.000000     Total SCF correction =     0.000000


     Computing stress (Cartesian axis) and pressure

          total   stress  (Ry/bohr**3)                   (kbar)     P=      -45.21
  -0.00030731   0.00000000   0.00000000          -45.21        0.00        0.00
   0.00000000  -0.00030731   0.00000000            0.00      -45.21        0.00
   0.00000000   0.00000000  -0.00030731            0.00        0.00      -45.21

     kinetic stress (kbar)  14350.52      0.00      0.00
                                0.00  14350.52      0.00
                                0.00      0.00  14350.52

     local   stress (kbar)  -6185.88      0.00     -0.00
                                0.00  -6185.88     -0.00
                               -0.00     -0.00  -6185.88

     nonloc. stress (kbar)   4551.50      0.00      0.00
                                0.00   4551.50      0.00
                                0.00      0.00   4551.50

     hartree stress (kbar)   4273.70     -0.00      0.00
                               -0.00   4273.70      0.00
                                0.00      0.00   4273.70

     exc-cor stress (kbar)    451.31      0.00     -0.00
                                0.00    451.31     -0.00
                               -0.00     -0.00    451.31

     corecor stress (kbar)  -3893.16     -0.00     -0.00
                               -0.00  -3893.16      0.00
                               -0.00      0.00  -3893.16

     ewald   stress (kbar) -13593.20      0.00     -0.00
                                0.00 -13593.20     -0.00
                               -0.00     -0.00 -13593.20

     hubbard stress (kbar)      0.00      0.00      0.00
                                0.00      0.00      0.00
                                0.00      0.00      0.00

     DFT-D   stress (kbar)      0.00      0.00      0.00
                                0.00      0.00      0.00
                                0.00      0.00      0.00

     XDM     stress (kbar)      0.00      0.00      0.00
                                0.00      0.00      0.00
                                0.00      0.00      0.00

     dft-nl  stress (kbar)      0.00      0.00      0.00
                                0.00      0.00      0.00
                                0.00      0.00      0.00

     TS-vdW  stress (kbar)      0.00      0.00      0.00
                                0.00      0.00      0.00
                                0.00      0.00      0.00

     MDB     stress (kbar)      0.00      0.00      0.00
                                0.00      0.00      0.00
                                0.00      0.00      0.00

     3D-RISM stress (kbar)      0.00      0.00      0.00
                                0.00      0.00      0.00
                                0.00      0.00      0.00


     Writing all to output data dir ./out/BCO.save/ :
     XML data file, charge density, pseudopotentials, collected wavefunctions

     init_run     :      1.54s CPU      1.74s WALL (       1 calls)
     electrons    :     29.62s CPU     31.75s WALL (       1 calls)
     forces       :      0.76s CPU      0.84s WALL (       1 calls)
     stress       :      1.94s CPU      2.19s WALL (       1 calls)

     Called by init_run:
     wfcinit      :      0.71s CPU      0.72s WALL (       1 calls)
     wfcinit:atom :      0.01s CPU      0.01s WALL (      35 calls)
     wfcinit:wfcr :      0.67s CPU      0.68s WALL (      35 calls)
     potinit      :      0.25s CPU      0.37s WALL (       1 calls)
     hinit0       :      0.17s CPU      0.18s WALL (       1 calls)

     Called by electrons:
     c_bands      :     21.96s CPU     22.45s WALL (      11 calls)
     sum_band     :      4.87s CPU      5.86s WALL (      11 calls)
     v_of_rho     :      0.44s CPU      0.48s WALL (      12 calls)
     v_h          :      0.06s CPU      0.08s WALL (      12 calls)
     v_xc         :      0.59s CPU      0.61s WALL (      14 calls)
     newd         :      1.65s CPU      2.30s WALL (      12 calls)
     PAW_pot      :      0.72s CPU      0.81s WALL (      12 calls)
     mix_rho      :      0.11s CPU      0.11s WALL (      11 calls)

     Called by c_bands:
     init_us_2    :      0.27s CPU      0.28s WALL (     875 calls)
     init_us_2:cp :      0.26s CPU      0.27s WALL (     875 calls)
     cegterg      :     21.30s CPU     21.77s WALL (     385 calls)

     Called by sum_band:
     sum_band:wei :      0.01s CPU      0.01s WALL (      11 calls)
     sum_band:loo :      3.33s CPU      3.45s WALL (      11 calls)
     sum_band:buf :      0.04s CPU      0.04s WALL (     385 calls)
     sum_band:ini :      0.12s CPU      0.12s WALL (     385 calls)
     sum_band:cal :      0.62s CPU      0.64s WALL (     385 calls)
     sum_band:bec :      0.01s CPU      0.01s WALL (     385 calls)
     addusdens    :      1.41s CPU      2.26s WALL (      11 calls)
                                        0.00s GPU  (      11 calls)
     addusd:skk   :      0.01s CPU      0.01s WALL (      33 calls)
                                        0.00s GPU  (      33 calls)

     Called by *egterg:
     cdiaghg      :      1.40s CPU      1.42s WALL (    2006 calls)
     cegterg:over :      1.90s CPU      1.94s WALL (    1621 calls)
     cegterg:upda :      0.71s CPU      0.71s WALL (    1621 calls)
     cegterg:last :      1.55s CPU      1.57s WALL (     873 calls)
     h_psi        :     13.81s CPU     14.15s WALL (    2041 calls)
     s_psi        :      1.29s CPU      1.30s WALL (    2041 calls)
     g_psi        :      0.06s CPU      0.06s WALL (    1621 calls)

     Called by h_psi:
     h_psi:calbec :      2.05s CPU      2.11s WALL (    2041 calls)
     vloc_psi     :     10.38s CPU     10.65s WALL (    2041 calls)
     add_vuspsi   :      1.30s CPU      1.33s WALL (    2041 calls)

     General routines
     calbec       :      3.07s CPU      3.20s WALL (    2601 calls)
     fft          :      0.50s CPU      0.53s WALL (     179 calls)
     ffts         :      0.15s CPU      0.16s WALL (      23 calls)
     fftw         :      9.95s CPU     10.25s WALL (   58445 calls)
     interpolate  :      0.18s CPU      0.19s WALL (      12 calls)

     Parallel routines

     PAW routines
     PAW_pot      :      0.72s CPU      0.81s WALL (      12 calls)
     PAW_symme    :      0.02s CPU      0.02s WALL (      23 calls)

     PWSCF        :     35.06s CPU     37.94s WALL


   This run was terminated on:  18:36:24   7Apr2025            

=------------------------------------------------------------------------------=
   JOB DONE.
=------------------------------------------------------------------------------=
