
     Program PWSCF v.7.3 starts on  7Apr2025 at 18:40:27 

     This program is part of the open-source Quantum ESPRESSO suite
     for quantum simulation of materials; please cite
         "P. Giannozzi et al., J. Phys.:Condens. Matter 21 395502 (2009);
         "P. Giannozzi et al., J. Phys.:Condens. Matter 29 465901 (2017);
         "P. Giannozzi et al., J. Chem. Phys. 152 154105 (2020);
          URL http://www.quantum-espresso.org", 
     in publications or presentations arising from this work. More details at
     http://www.quantum-espresso.org/quote

     Parallel version (MPI), running on    20 processors

     MPI processes distributed on     1 nodes
     26761 MiB available memory on the printing compute node when the environment starts

     Waiting for input...
     Reading input from standard input

     Current dimensions of program PWSCF are:
     Max number of different atomic species (ntypx) = 10
     Max number of k-points (npk) = 120000
     Max angular momentum in pseudopotentials (lmaxx) =  4
     file Ba.pbesol-spn-kjpaw_psl.1.0.0.UPF: wavefunction(s)  5S 6S renormalized
     file O.pbesol-n-kjpaw_psl.0.1.UPF: wavefunction(s)  2P renormalized
     Message from routine setup:
     using ibrav=0 with symmetry is DISCOURAGED, use correct ibrav instead

     K-points division:     npool     =       2
     R & G space division:  proc/nbgrp/npool/nimage =      10
     Subspace diagonalization in iterative solution of the eigenvalue problem:
     a serial algorithm will be used


     Parallelization info
     --------------------
     sticks:   dense  smooth     PW     G-vecs:    dense   smooth      PW
     Min         112      44     14                 2853      713     134
     Max         114      45     15                 2856      716     137
     Sum        1125     441    145                28545     7153    1357

     Using Slab Decomposition



     bravais-lattice index     =            0
     lattice parameter (alat)  =       8.4365  a.u.
     unit-cell volume          =     600.4730 (a.u.)^3
     number of atoms/cell      =            5
     number of atomic types    =            3
     number of electrons       =        38.00
     number of Kohn-Sham states=           23
     kinetic-energy cutoff     =      20.0000  Ry
     charge density cutoff     =     200.0000  Ry
     scf convergence threshold =      1.0E-07
     mixing beta               =       0.4000
     number of iterations used =            8  plain     mixing
     Exchange-correlation= SLA  PW   PSX  PSC
                           (   1   4  10   8   0   0   0)

     celldm(1)=   8.436542  celldm(2)=   0.000000  celldm(3)=   0.000000
     celldm(4)=   0.000000  celldm(5)=   0.000000  celldm(6)=   0.000000

     crystal axes: (cart. coord. in units of alat)
               a(1) = (   1.000000   0.000000   0.000000 )  
               a(2) = (   0.000000   1.000000   0.000000 )  
               a(3) = (   0.000000   0.000000   1.000000 )  

     reciprocal axes: (cart. coord. in units 2 pi/alat)
               b(1) = (  1.000000  0.000000  0.000000 )  
               b(2) = (  0.000000  1.000000  0.000000 )  
               b(3) = (  0.000000  0.000000  1.000000 )  


     PseudoPot. # 1 for Ba read from file:
     ./pseudo/Ba.pbesol-spn-kjpaw_psl.1.0.0.UPF
     MD5 check sum: f28c4a63d325c1a0d00fd3a4f19b8d73
     Pseudo is Projector augmented-wave + core cor, Zval = 10.0
     Generated using "atomic" code by A. Dal Corso  v.6.0 svn rev. 13079
     Shape of augmentation charge: PSQ
     Using radial grid of 1251 points,  7 beta functions with: 
                l(1) =   0
                l(2) =   0
                l(3) =   0
                l(4) =   1
                l(5) =   1
                l(6) =   2
                l(7) =   2
     Q(r) pseudized with 0 coefficients 


     PseudoPot. # 2 for Ca read from file:
     ./pseudo/ca_pbesol_v1.uspp.F.UPF
     MD5 check sum: 0533207b58cddeaa036efa5b63902087
     Pseudo is Ultrasoft + core correction, Zval = 10.0
     Generated by new atomic code, or converted to UPF format
     Using radial grid of  845 points,  6 beta functions with: 
                l(1) =   0
                l(2) =   0
                l(3) =   1
                l(4) =   1
                l(5) =   2
                l(6) =   2
     Q(r) pseudized with  8 coefficients,  rinner =    1.500   1.500   1.500
                                                       1.500   1.500

     PseudoPot. # 3 for O  read from file:
     ./pseudo/O.pbesol-n-kjpaw_psl.0.1.UPF
     MD5 check sum: 81d73d1479e654e5638b0319f0d6c2c7
     Pseudo is Projector augmented-wave + core cor, Zval =  6.0
     Generated using "atomic" code by A. Dal Corso  v.6.0 svn rev. 13079
     Shape of augmentation charge: BESSEL
     Using radial grid of 1095 points,  4 beta functions with: 
                l(1) =   0
                l(2) =   0
                l(3) =   1
                l(4) =   1
     Q(r) pseudized with 0 coefficients 


     atomic species   valence    mass     pseudopotential
     Ba               10.00   137.32700     Ba( 1.00)
     Ca               10.00    40.07800     Ca( 1.00)
     O                 6.00    15.99940     O ( 1.00)

     48 Sym. Ops., with inversion, found


                                    s                        frac. trans.

      isym =  1     identity                                     

 cryst.   s( 1) = (     1          0          0      )
                  (     0          1          0      )
                  (     0          0          1      )

 cart.    s( 1) = (  1.0000000  0.0000000  0.0000000 )
                  (  0.0000000  1.0000000  0.0000000 )
                  (  0.0000000  0.0000000  1.0000000 )


      isym =  2     180 deg rotation - cart. axis [0,0,1]        

 cryst.   s( 2) = (    -1          0          0      )
                  (     0         -1          0      )
                  (     0          0          1      )

 cart.    s( 2) = ( -1.0000000  0.0000000  0.0000000 )
                  (  0.0000000 -1.0000000  0.0000000 )
                  (  0.0000000  0.0000000  1.0000000 )


      isym =  3     180 deg rotation - cart. axis [0,1,0]        

 cryst.   s( 3) = (    -1          0          0      )
                  (     0          1          0      )
                  (     0          0         -1      )

 cart.    s( 3) = ( -1.0000000  0.0000000  0.0000000 )
                  (  0.0000000  1.0000000  0.0000000 )
                  (  0.0000000  0.0000000 -1.0000000 )


      isym =  4     180 deg rotation - cart. axis [1,0,0]        

 cryst.   s( 4) = (     1          0          0      )
                  (     0         -1          0      )
                  (     0          0         -1      )

 cart.    s( 4) = (  1.0000000  0.0000000  0.0000000 )
                  (  0.0000000 -1.0000000  0.0000000 )
                  (  0.0000000  0.0000000 -1.0000000 )


      isym =  5     180 deg rotation - cart. axis [1,1,0]        

 cryst.   s( 5) = (     0          1          0      )
                  (     1          0          0      )
                  (     0          0         -1      )

 cart.    s( 5) = (  0.0000000  1.0000000  0.0000000 )
                  (  1.0000000  0.0000000  0.0000000 )
                  (  0.0000000  0.0000000 -1.0000000 )


      isym =  6     180 deg rotation - cart. axis [1,-1,0]       

 cryst.   s( 6) = (     0         -1          0      )
                  (    -1          0          0      )
                  (     0          0         -1      )

 cart.    s( 6) = (  0.0000000 -1.0000000  0.0000000 )
                  ( -1.0000000  0.0000000  0.0000000 )
                  (  0.0000000  0.0000000 -1.0000000 )


      isym =  7      90 deg rotation - cart. axis [0,0,-1]       

 cryst.   s( 7) = (     0         -1          0      )
                  (     1          0          0      )
                  (     0          0          1      )

 cart.    s( 7) = (  0.0000000  1.0000000  0.0000000 )
                  ( -1.0000000  0.0000000  0.0000000 )
                  (  0.0000000  0.0000000  1.0000000 )


      isym =  8      90 deg rotation - cart. axis [0,0,1]        

 cryst.   s( 8) = (     0          1          0      )
                  (    -1          0          0      )
                  (     0          0          1      )

 cart.    s( 8) = (  0.0000000 -1.0000000  0.0000000 )
                  (  1.0000000  0.0000000  0.0000000 )
                  (  0.0000000  0.0000000  1.0000000 )


      isym =  9     180 deg rotation - cart. axis [1,0,1]        

 cryst.   s( 9) = (     0          0          1      )
                  (     0         -1          0      )
                  (     1          0          0      )

 cart.    s( 9) = (  0.0000000  0.0000000  1.0000000 )
                  (  0.0000000 -1.0000000  0.0000000 )
                  (  1.0000000  0.0000000  0.0000000 )


      isym = 10     180 deg rotation - cart. axis [-1,0,1]       

 cryst.   s(10) = (     0          0         -1      )
                  (     0         -1          0      )
                  (    -1          0          0      )

 cart.    s(10) = (  0.0000000  0.0000000 -1.0000000 )
                  (  0.0000000 -1.0000000  0.0000000 )
                  ( -1.0000000  0.0000000  0.0000000 )


      isym = 11      90 deg rotation - cart. axis [0,1,0]        

 cryst.   s(11) = (     0          0         -1      )
                  (     0          1          0      )
                  (     1          0          0      )

 cart.    s(11) = (  0.0000000  0.0000000  1.0000000 )
                  (  0.0000000  1.0000000  0.0000000 )
                  ( -1.0000000  0.0000000  0.0000000 )


      isym = 12      90 deg rotation - cart. axis [0,-1,0]       

 cryst.   s(12) = (     0          0          1      )
                  (     0          1          0      )
                  (    -1          0          0      )

 cart.    s(12) = (  0.0000000  0.0000000 -1.0000000 )
                  (  0.0000000  1.0000000  0.0000000 )
                  (  1.0000000  0.0000000  0.0000000 )


      isym = 13     180 deg rotation - cart. axis [0,1,1]        

 cryst.   s(13) = (    -1          0          0      )
                  (     0          0          1      )
                  (     0          1          0      )

 cart.    s(13) = ( -1.0000000  0.0000000  0.0000000 )
                  (  0.0000000  0.0000000  1.0000000 )
                  (  0.0000000  1.0000000  0.0000000 )


      isym = 14     180 deg rotation - cart. axis [0,1,-1]       

 cryst.   s(14) = (    -1          0          0      )
                  (     0          0         -1      )
                  (     0         -1          0      )

 cart.    s(14) = ( -1.0000000  0.0000000  0.0000000 )
                  (  0.0000000  0.0000000 -1.0000000 )
                  (  0.0000000 -1.0000000  0.0000000 )


      isym = 15      90 deg rotation - cart. axis [-1,0,0]       

 cryst.   s(15) = (     1          0          0      )
                  (     0          0         -1      )
                  (     0          1          0      )

 cart.    s(15) = (  1.0000000  0.0000000  0.0000000 )
                  (  0.0000000  0.0000000  1.0000000 )
                  (  0.0000000 -1.0000000  0.0000000 )


      isym = 16      90 deg rotation - cart. axis [1,0,0]        

 cryst.   s(16) = (     1          0          0      )
                  (     0          0          1      )
                  (     0         -1          0      )

 cart.    s(16) = (  1.0000000  0.0000000  0.0000000 )
                  (  0.0000000  0.0000000 -1.0000000 )
                  (  0.0000000  1.0000000  0.0000000 )


      isym = 17     120 deg rotation - cart. axis [-1,-1,-1]     

 cryst.   s(17) = (     0          0          1      )
                  (     1          0          0      )
                  (     0          1          0      )

 cart.    s(17) = (  0.0000000  1.0000000  0.0000000 )
                  (  0.0000000  0.0000000  1.0000000 )
                  (  1.0000000  0.0000000  0.0000000 )


      isym = 18     120 deg rotation - cart. axis [-1,1,1]       

 cryst.   s(18) = (     0          0         -1      )
                  (    -1          0          0      )
                  (     0          1          0      )

 cart.    s(18) = (  0.0000000 -1.0000000  0.0000000 )
                  (  0.0000000  0.0000000  1.0000000 )
                  ( -1.0000000  0.0000000  0.0000000 )


      isym = 19     120 deg rotation - cart. axis [1,1,-1]       

 cryst.   s(19) = (     0          0         -1      )
                  (     1          0          0      )
                  (     0         -1          0      )

 cart.    s(19) = (  0.0000000  1.0000000  0.0000000 )
                  (  0.0000000  0.0000000 -1.0000000 )
                  ( -1.0000000  0.0000000  0.0000000 )


      isym = 20     120 deg rotation - cart. axis [1,-1,1]       

 cryst.   s(20) = (     0          0          1      )
                  (    -1          0          0      )
                  (     0         -1          0      )

 cart.    s(20) = (  0.0000000 -1.0000000  0.0000000 )
                  (  0.0000000  0.0000000 -1.0000000 )
                  (  1.0000000  0.0000000  0.0000000 )


      isym = 21     120 deg rotation - cart. axis [1,1,1]        

 cryst.   s(21) = (     0          1          0      )
                  (     0          0          1      )
                  (     1          0          0      )

 cart.    s(21) = (  0.0000000  0.0000000  1.0000000 )
                  (  1.0000000  0.0000000  0.0000000 )
                  (  0.0000000  1.0000000  0.0000000 )


      isym = 22     120 deg rotation - cart. axis [-1,1,-1]      

 cryst.   s(22) = (     0         -1          0      )
                  (     0          0         -1      )
                  (     1          0          0      )

 cart.    s(22) = (  0.0000000  0.0000000  1.0000000 )
                  ( -1.0000000  0.0000000  0.0000000 )
                  (  0.0000000 -1.0000000  0.0000000 )


      isym = 23     120 deg rotation - cart. axis [1,-1,-1]      

 cryst.   s(23) = (     0         -1          0      )
                  (     0          0          1      )
                  (    -1          0          0      )

 cart.    s(23) = (  0.0000000  0.0000000 -1.0000000 )
                  ( -1.0000000  0.0000000  0.0000000 )
                  (  0.0000000  1.0000000  0.0000000 )


      isym = 24     120 deg rotation - cart. axis [-1,-1,1]      

 cryst.   s(24) = (     0          1          0      )
                  (     0          0         -1      )
                  (    -1          0          0      )

 cart.    s(24) = (  0.0000000  0.0000000 -1.0000000 )
                  (  1.0000000  0.0000000  0.0000000 )
                  (  0.0000000 -1.0000000  0.0000000 )


      isym = 25     inversion                                    

 cryst.   s(25) = (    -1          0          0      )
                  (     0         -1          0      )
                  (     0          0         -1      )

 cart.    s(25) = ( -1.0000000  0.0000000  0.0000000 )
                  (  0.0000000 -1.0000000  0.0000000 )
                  (  0.0000000  0.0000000 -1.0000000 )


      isym = 26     inv. 180 deg rotation - cart. axis [0,0,1]   

 cryst.   s(26) = (     1          0          0      )
                  (     0          1          0      )
                  (     0          0         -1      )

 cart.    s(26) = (  1.0000000  0.0000000  0.0000000 )
                  (  0.0000000  1.0000000  0.0000000 )
                  (  0.0000000  0.0000000 -1.0000000 )


      isym = 27     inv. 180 deg rotation - cart. axis [0,1,0]   

 cryst.   s(27) = (     1          0          0      )
                  (     0         -1          0      )
                  (     0          0          1      )

 cart.    s(27) = (  1.0000000  0.0000000  0.0000000 )
                  (  0.0000000 -1.0000000  0.0000000 )
                  (  0.0000000  0.0000000  1.0000000 )


      isym = 28     inv. 180 deg rotation - cart. axis [1,0,0]   

 cryst.   s(28) = (    -1          0          0      )
                  (     0          1          0      )
                  (     0          0          1      )

 cart.    s(28) = ( -1.0000000  0.0000000  0.0000000 )
                  (  0.0000000  1.0000000  0.0000000 )
                  (  0.0000000  0.0000000  1.0000000 )


      isym = 29     inv. 180 deg rotation - cart. axis [1,1,0]   

 cryst.   s(29) = (     0         -1          0      )
                  (    -1          0          0      )
                  (     0          0          1      )

 cart.    s(29) = (  0.0000000 -1.0000000  0.0000000 )
                  ( -1.0000000  0.0000000  0.0000000 )
                  (  0.0000000  0.0000000  1.0000000 )


      isym = 30     inv. 180 deg rotation - cart. axis [1,-1,0]  

 cryst.   s(30) = (     0          1          0      )
                  (     1          0          0      )
                  (     0          0          1      )

 cart.    s(30) = (  0.0000000  1.0000000  0.0000000 )
                  (  1.0000000  0.0000000  0.0000000 )
                  (  0.0000000  0.0000000  1.0000000 )


      isym = 31     inv.  90 deg rotation - cart. axis [0,0,-1]  

 cryst.   s(31) = (     0          1          0      )
                  (    -1          0          0      )
                  (     0          0         -1      )

 cart.    s(31) = (  0.0000000 -1.0000000  0.0000000 )
                  (  1.0000000  0.0000000  0.0000000 )
                  (  0.0000000  0.0000000 -1.0000000 )


      isym = 32     inv.  90 deg rotation - cart. axis [0,0,1]   

 cryst.   s(32) = (     0         -1          0      )
                  (     1          0          0      )
                  (     0          0         -1      )

 cart.    s(32) = (  0.0000000  1.0000000  0.0000000 )
                  ( -1.0000000  0.0000000  0.0000000 )
                  (  0.0000000  0.0000000 -1.0000000 )


      isym = 33     inv. 180 deg rotation - cart. axis [1,0,1]   

 cryst.   s(33) = (     0          0         -1      )
                  (     0          1          0      )
                  (    -1          0          0      )

 cart.    s(33) = (  0.0000000  0.0000000 -1.0000000 )
                  (  0.0000000  1.0000000  0.0000000 )
                  ( -1.0000000  0.0000000  0.0000000 )


      isym = 34     inv. 180 deg rotation - cart. axis [-1,0,1]  

 cryst.   s(34) = (     0          0          1      )
                  (     0          1          0      )
                  (     1          0          0      )

 cart.    s(34) = (  0.0000000  0.0000000  1.0000000 )
                  (  0.0000000  1.0000000  0.0000000 )
                  (  1.0000000  0.0000000  0.0000000 )


      isym = 35     inv.  90 deg rotation - cart. axis [0,1,0]   

 cryst.   s(35) = (     0          0          1      )
                  (     0         -1          0      )
                  (    -1          0          0      )

 cart.    s(35) = (  0.0000000  0.0000000 -1.0000000 )
                  (  0.0000000 -1.0000000  0.0000000 )
                  (  1.0000000  0.0000000  0.0000000 )


      isym = 36     inv.  90 deg rotation - cart. axis [0,-1,0]  

 cryst.   s(36) = (     0          0         -1      )
                  (     0         -1          0      )
                  (     1          0          0      )

 cart.    s(36) = (  0.0000000  0.0000000  1.0000000 )
                  (  0.0000000 -1.0000000  0.0000000 )
                  ( -1.0000000  0.0000000  0.0000000 )


      isym = 37     inv. 180 deg rotation - cart. axis [0,1,1]   

 cryst.   s(37) = (     1          0          0      )
                  (     0          0         -1      )
                  (     0         -1          0      )

 cart.    s(37) = (  1.0000000  0.0000000  0.0000000 )
                  (  0.0000000  0.0000000 -1.0000000 )
                  (  0.0000000 -1.0000000  0.0000000 )


      isym = 38     inv. 180 deg rotation - cart. axis [0,1,-1]  

 cryst.   s(38) = (     1          0          0      )
                  (     0          0          1      )
                  (     0          1          0      )

 cart.    s(38) = (  1.0000000  0.0000000  0.0000000 )
                  (  0.0000000  0.0000000  1.0000000 )
                  (  0.0000000  1.0000000  0.0000000 )


      isym = 39     inv.  90 deg rotation - cart. axis [-1,0,0]  

 cryst.   s(39) = (    -1          0          0      )
                  (     0          0          1      )
                  (     0         -1          0      )

 cart.    s(39) = ( -1.0000000  0.0000000  0.0000000 )
                  (  0.0000000  0.0000000 -1.0000000 )
                  (  0.0000000  1.0000000  0.0000000 )


      isym = 40     inv.  90 deg rotation - cart. axis [1,0,0]   

 cryst.   s(40) = (    -1          0          0      )
                  (     0          0         -1      )
                  (     0          1          0      )

 cart.    s(40) = ( -1.0000000  0.0000000  0.0000000 )
                  (  0.0000000  0.0000000  1.0000000 )
                  (  0.0000000 -1.0000000  0.0000000 )


      isym = 41     inv. 120 deg rotation - cart. axis [-1,-1,-1]

 cryst.   s(41) = (     0          0         -1      )
                  (    -1          0          0      )
                  (     0         -1          0      )

 cart.    s(41) = (  0.0000000 -1.0000000  0.0000000 )
                  (  0.0000000  0.0000000 -1.0000000 )
                  ( -1.0000000  0.0000000  0.0000000 )


      isym = 42     inv. 120 deg rotation - cart. axis [-1,1,1]  

 cryst.   s(42) = (     0          0          1      )
                  (     1          0          0      )
                  (     0         -1          0      )

 cart.    s(42) = (  0.0000000  1.0000000  0.0000000 )
                  (  0.0000000  0.0000000 -1.0000000 )
                  (  1.0000000  0.0000000  0.0000000 )


      isym = 43     inv. 120 deg rotation - cart. axis [1,1,-1]  

 cryst.   s(43) = (     0          0          1      )
                  (    -1          0          0      )
                  (     0          1          0      )

 cart.    s(43) = (  0.0000000 -1.0000000  0.0000000 )
                  (  0.0000000  0.0000000  1.0000000 )
                  (  1.0000000  0.0000000  0.0000000 )


      isym = 44     inv. 120 deg rotation - cart. axis [1,-1,1]  

 cryst.   s(44) = (     0          0         -1      )
                  (     1          0          0      )
                  (     0          1          0      )

 cart.    s(44) = (  0.0000000  1.0000000  0.0000000 )
                  (  0.0000000  0.0000000  1.0000000 )
                  ( -1.0000000  0.0000000  0.0000000 )


      isym = 45     inv. 120 deg rotation - cart. axis [1,1,1]   

 cryst.   s(45) = (     0         -1          0      )
                  (     0          0         -1      )
                  (    -1          0          0      )

 cart.    s(45) = (  0.0000000  0.0000000 -1.0000000 )
                  ( -1.0000000  0.0000000  0.0000000 )
                  (  0.0000000 -1.0000000  0.0000000 )


      isym = 46     inv. 120 deg rotation - cart. axis [-1,1,-1] 

 cryst.   s(46) = (     0          1          0      )
                  (     0          0          1      )
                  (    -1          0          0      )

 cart.    s(46) = (  0.0000000  0.0000000 -1.0000000 )
                  (  1.0000000  0.0000000  0.0000000 )
                  (  0.0000000  1.0000000  0.0000000 )


      isym = 47     inv. 120 deg rotation - cart. axis [1,-1,-1] 

 cryst.   s(47) = (     0          1          0      )
                  (     0          0         -1      )
                  (     1          0          0      )

 cart.    s(47) = (  0.0000000  0.0000000  1.0000000 )
                  (  1.0000000  0.0000000  0.0000000 )
                  (  0.0000000 -1.0000000  0.0000000 )


      isym = 48     inv. 120 deg rotation - cart. axis [-1,-1,1] 

 cryst.   s(48) = (     0         -1          0      )
                  (     0          0          1      )
                  (     1          0          0      )

 cart.    s(48) = (  0.0000000  0.0000000  1.0000000 )
                  ( -1.0000000  0.0000000  0.0000000 )
                  (  0.0000000  1.0000000  0.0000000 )


   Cartesian axes

     site n.     atom                  positions (alat units)
         1        Ba     tau(   1) = (   0.0000000   0.0000000   0.0000000  )
         2        Ca     tau(   2) = (   0.5000000   0.5000000   0.5000000  )
         3        O      tau(   3) = (   0.5000000   0.5000000   0.0000000  )
         4        O      tau(   4) = (   0.5000000   0.0000000   0.5000000  )
         5        O      tau(   5) = (   0.0000000   0.5000000   0.5000000  )

   Crystallographic axes

     site n.     atom                  positions (cryst. coord.)
         1        Ba     tau(   1) = (  0.0000000  0.0000000  0.0000000  )
         2        Ca     tau(   2) = (  0.5000000  0.5000000  0.5000000  )
         3        O      tau(   3) = (  0.5000000  0.5000000  0.0000000  )
         4        O      tau(   4) = (  0.5000000  0.0000000  0.5000000  )
         5        O      tau(   5) = (  0.0000000  0.5000000  0.5000000  )

     number of k points=    35  Marzari-Vanderbilt smearing, width (Ry)=  0.0200
                       cart. coord. in units 2pi/alat
        k(    1) = (   0.0500000   0.0500000   0.0500000), wk =   0.0160000
        k(    2) = (   0.0500000   0.0500000   0.1500000), wk =   0.0480000
        k(    3) = (   0.0500000   0.0500000   0.2500000), wk =   0.0480000
        k(    4) = (   0.0500000   0.0500000   0.3500000), wk =   0.0480000
        k(    5) = (   0.0500000   0.0500000   0.4500000), wk =   0.0480000
        k(    6) = (   0.0500000   0.1500000   0.1500000), wk =   0.0480000
        k(    7) = (   0.0500000   0.1500000   0.2500000), wk =   0.0960000
        k(    8) = (   0.0500000   0.1500000   0.3500000), wk =   0.0960000
        k(    9) = (   0.0500000   0.1500000   0.4500000), wk =   0.0960000
        k(   10) = (   0.0500000   0.2500000   0.2500000), wk =   0.0480000
        k(   11) = (   0.0500000   0.2500000   0.3500000), wk =   0.0960000
        k(   12) = (   0.0500000   0.2500000   0.4500000), wk =   0.0960000
        k(   13) = (   0.0500000   0.3500000   0.3500000), wk =   0.0480000
        k(   14) = (   0.0500000   0.3500000   0.4500000), wk =   0.0960000
        k(   15) = (   0.0500000   0.4500000   0.4500000), wk =   0.0480000
        k(   16) = (   0.1500000   0.1500000   0.1500000), wk =   0.0160000
        k(   17) = (   0.1500000   0.1500000   0.2500000), wk =   0.0480000
        k(   18) = (   0.1500000   0.1500000   0.3500000), wk =   0.0480000
        k(   19) = (   0.1500000   0.1500000   0.4500000), wk =   0.0480000
        k(   20) = (   0.1500000   0.2500000   0.2500000), wk =   0.0480000
        k(   21) = (   0.1500000   0.2500000   0.3500000), wk =   0.0960000
        k(   22) = (   0.1500000   0.2500000   0.4500000), wk =   0.0960000
        k(   23) = (   0.1500000   0.3500000   0.3500000), wk =   0.0480000
        k(   24) = (   0.1500000   0.3500000   0.4500000), wk =   0.0960000
        k(   25) = (   0.1500000   0.4500000   0.4500000), wk =   0.0480000
        k(   26) = (   0.2500000   0.2500000   0.2500000), wk =   0.0160000
        k(   27) = (   0.2500000   0.2500000   0.3500000), wk =   0.0480000
        k(   28) = (   0.2500000   0.2500000   0.4500000), wk =   0.0480000
        k(   29) = (   0.2500000   0.3500000   0.3500000), wk =   0.0480000
        k(   30) = (   0.2500000   0.3500000   0.4500000), wk =   0.0960000
        k(   31) = (   0.2500000   0.4500000   0.4500000), wk =   0.0480000
        k(   32) = (   0.3500000   0.3500000   0.3500000), wk =   0.0160000
        k(   33) = (   0.3500000   0.3500000   0.4500000), wk =   0.0480000
        k(   34) = (   0.3500000   0.4500000   0.4500000), wk =   0.0480000
        k(   35) = (   0.4500000   0.4500000   0.4500000), wk =   0.0160000

                       cryst. coord.
        k(    1) = (   0.0500000   0.0500000   0.0500000), wk =   0.0160000
        k(    2) = (   0.0500000   0.0500000   0.1500000), wk =   0.0480000
        k(    3) = (   0.0500000   0.0500000   0.2500000), wk =   0.0480000
        k(    4) = (   0.0500000   0.0500000   0.3500000), wk =   0.0480000
        k(    5) = (   0.0500000   0.0500000   0.4500000), wk =   0.0480000
        k(    6) = (   0.0500000   0.1500000   0.1500000), wk =   0.0480000
        k(    7) = (   0.0500000   0.1500000   0.2500000), wk =   0.0960000
        k(    8) = (   0.0500000   0.1500000   0.3500000), wk =   0.0960000
        k(    9) = (   0.0500000   0.1500000   0.4500000), wk =   0.0960000
        k(   10) = (   0.0500000   0.2500000   0.2500000), wk =   0.0480000
        k(   11) = (   0.0500000   0.2500000   0.3500000), wk =   0.0960000
        k(   12) = (   0.0500000   0.2500000   0.4500000), wk =   0.0960000
        k(   13) = (   0.0500000   0.3500000   0.3500000), wk =   0.0480000
        k(   14) = (   0.0500000   0.3500000   0.4500000), wk =   0.0960000
        k(   15) = (   0.0500000   0.4500000   0.4500000), wk =   0.0480000
        k(   16) = (   0.1500000   0.1500000   0.1500000), wk =   0.0160000
        k(   17) = (   0.1500000   0.1500000   0.2500000), wk =   0.0480000
        k(   18) = (   0.1500000   0.1500000   0.3500000), wk =   0.0480000
        k(   19) = (   0.1500000   0.1500000   0.4500000), wk =   0.0480000
        k(   20) = (   0.1500000   0.2500000   0.2500000), wk =   0.0480000
        k(   21) = (   0.1500000   0.2500000   0.3500000), wk =   0.0960000
        k(   22) = (   0.1500000   0.2500000   0.4500000), wk =   0.0960000
        k(   23) = (   0.1500000   0.3500000   0.3500000), wk =   0.0480000
        k(   24) = (   0.1500000   0.3500000   0.4500000), wk =   0.0960000
        k(   25) = (   0.1500000   0.4500000   0.4500000), wk =   0.0480000
        k(   26) = (   0.2500000   0.2500000   0.2500000), wk =   0.0160000
        k(   27) = (   0.2500000   0.2500000   0.3500000), wk =   0.0480000
        k(   28) = (   0.2500000   0.2500000   0.4500000), wk =   0.0480000
        k(   29) = (   0.2500000   0.3500000   0.3500000), wk =   0.0480000
        k(   30) = (   0.2500000   0.3500000   0.4500000), wk =   0.0960000
        k(   31) = (   0.2500000   0.4500000   0.4500000), wk =   0.0480000
        k(   32) = (   0.3500000   0.3500000   0.3500000), wk =   0.0160000
        k(   33) = (   0.3500000   0.3500000   0.4500000), wk =   0.0480000
        k(   34) = (   0.3500000   0.4500000   0.4500000), wk =   0.0480000
        k(   35) = (   0.4500000   0.4500000   0.4500000), wk =   0.0160000

     Dense  grid:    28545 G-vectors     FFT dimensions: (  40,  40,  40)

     Smooth grid:     7153 G-vectors     FFT dimensions: (  25,  25,  25)

     Dynamical RAM for                 wfc:       0.03 MB

     Dynamical RAM for     wfc (w. buffer):       0.60 MB

     Dynamical RAM for           str. fact:       0.13 MB

     Dynamical RAM for           local pot:       0.00 MB

     Dynamical RAM for          nlocal pot:       0.08 MB

     Dynamical RAM for                qrad:       4.54 MB

     Dynamical RAM for          rho,v,vnew:       0.28 MB

     Dynamical RAM for               rhoin:       0.09 MB

     Dynamical RAM for            rho*nmix:       0.70 MB

     Dynamical RAM for           G-vectors:       0.17 MB

     Dynamical RAM for          h,s,v(r/c):       0.10 MB

     Dynamical RAM for          <psi|beta>:       0.02 MB

     Dynamical RAM for                 psi:       0.06 MB

     Dynamical RAM for                hpsi:       0.06 MB

     Dynamical RAM for                spsi:       0.06 MB

     Dynamical RAM for      wfcinit/wfcrot:       0.09 MB

     Dynamical RAM for           addusdens:       4.55 MB

     Dynamical RAM for          addusforce:       4.65 MB

     Dynamical RAM for         addusstress:       4.80 MB

     Estimated static dynamical RAM per process >       6.32 MB

     Estimated max dynamical RAM per process >      11.82 MB

     Estimated total dynamical RAM >     229.37 MB

     Check: negative core charge=   -0.000018

     Initial potential from superposition of free atoms

     starting charge      37.9791, renormalised to      38.0000
     Starting wfcs are   27 randomized atomic wfcs
     Checking if some PAW data can be deallocated... 
       PAW data deallocated on   16 nodes for type:  1
       PAW data deallocated on    8 nodes for type:  3

     total cpu time spent up to now is        1.3 secs

     Self-consistent Calculation

     iteration #  1     ecut=    20.00 Ry     beta= 0.40
     Davidson diagonalization with overlap

---- Real-time Memory Report at c_bands before calling an iterative solver
            52 MiB given to the printing process from OS
             0 MiB allocation reported by mallinfo(arena+hblkhd)
         26170 MiB available memory on the node where the printing process lives
------------------
     ethr =  1.00E-02,  avg # of iterations =  3.1

     Threshold (ethr) on eigenvalues was too large:
     Diagonalizing with lowered threshold

     Davidson diagonalization with overlap

---- Real-time Memory Report at c_bands before calling an iterative solver
            52 MiB given to the printing process from OS
             0 MiB allocation reported by mallinfo(arena+hblkhd)
         26183 MiB available memory on the node where the printing process lives
------------------
     ethr =  7.43E-04,  avg # of iterations =  3.4

     total cpu time spent up to now is        2.5 secs

     total energy              =    -626.48687407 Ry
     estimated scf accuracy    <       0.27245609 Ry

     iteration #  2     ecut=    20.00 Ry     beta= 0.40
     Davidson diagonalization with overlap

---- Real-time Memory Report at c_bands before calling an iterative solver
            55 MiB given to the printing process from OS
             0 MiB allocation reported by mallinfo(arena+hblkhd)
         26164 MiB available memory on the node where the printing process lives
------------------
     ethr =  7.17E-04,  avg # of iterations =  6.8

     total cpu time spent up to now is        2.9 secs

     total energy              =    -626.48124420 Ry
     estimated scf accuracy    <       0.05946190 Ry

     iteration #  3     ecut=    20.00 Ry     beta= 0.40
     Davidson diagonalization with overlap

---- Real-time Memory Report at c_bands before calling an iterative solver
            56 MiB given to the printing process from OS
             0 MiB allocation reported by mallinfo(arena+hblkhd)
         26159 MiB available memory on the node where the printing process lives
------------------
     ethr =  1.56E-04,  avg # of iterations =  5.7

     total cpu time spent up to now is        3.8 secs

     total energy              =    -626.48345396 Ry
     estimated scf accuracy    <       0.00674198 Ry

     iteration #  4     ecut=    20.00 Ry     beta= 0.40
     Davidson diagonalization with overlap

---- Real-time Memory Report at c_bands before calling an iterative solver
            56 MiB given to the printing process from OS
             0 MiB allocation reported by mallinfo(arena+hblkhd)
         26165 MiB available memory on the node where the printing process lives
------------------
     ethr =  1.77E-05,  avg # of iterations =  5.3

     total cpu time spent up to now is        4.9 secs

     total energy              =    -626.48402822 Ry
     estimated scf accuracy    <       0.00025314 Ry

     iteration #  5     ecut=    20.00 Ry     beta= 0.40
     Davidson diagonalization with overlap

---- Real-time Memory Report at c_bands before calling an iterative solver
            56 MiB given to the printing process from OS
             0 MiB allocation reported by mallinfo(arena+hblkhd)
         26144 MiB available memory on the node where the printing process lives
------------------
     ethr =  6.66E-07,  avg # of iterations =  3.9

     total cpu time spent up to now is        5.7 secs

     total energy              =    -626.48408583 Ry
     estimated scf accuracy    <       0.00001395 Ry

     iteration #  6     ecut=    20.00 Ry     beta= 0.40
     Davidson diagonalization with overlap

---- Real-time Memory Report at c_bands before calling an iterative solver
            56 MiB given to the printing process from OS
             0 MiB allocation reported by mallinfo(arena+hblkhd)
         26131 MiB available memory on the node where the printing process lives
------------------
     ethr =  3.67E-08,  avg # of iterations =  2.3

     total cpu time spent up to now is        6.1 secs

     total energy              =    -626.48409289 Ry
     estimated scf accuracy    <       0.00000293 Ry

     iteration #  7     ecut=    20.00 Ry     beta= 0.40
     Davidson diagonalization with overlap

---- Real-time Memory Report at c_bands before calling an iterative solver
            56 MiB given to the printing process from OS
             0 MiB allocation reported by mallinfo(arena+hblkhd)
         26132 MiB available memory on the node where the printing process lives
------------------
     ethr =  7.72E-09,  avg # of iterations =  2.2

     total cpu time spent up to now is        7.3 secs

     total energy              =    -626.48409510 Ry
     estimated scf accuracy    <       0.00000011 Ry

     iteration #  8     ecut=    20.00 Ry     beta= 0.40
     Davidson diagonalization with overlap

---- Real-time Memory Report at c_bands before calling an iterative solver
            56 MiB given to the printing process from OS
             0 MiB allocation reported by mallinfo(arena+hblkhd)
         26139 MiB available memory on the node where the printing process lives
------------------
     ethr =  2.83E-10,  avg # of iterations =  4.0

     total cpu time spent up to now is        8.0 secs

     End of self-consistent calculation

          k = 0.0500 0.0500 0.0500 (   910 PWs)   bands (ev):

   -30.3849 -19.8070 -11.8675 -11.8244 -11.8244 -11.3652 -11.1595 -11.1595
    -4.8694  -4.8694  -4.8590   4.6208   4.6977   4.6977   5.2739   5.2739
     5.3500   5.7406   5.7950   5.7950  10.4701  10.4701  10.5262

     occupation numbers 
     1.0000   1.0000   1.0000   1.0000   1.0000   1.0000   1.0000   1.0000
     1.0000   1.0000   1.0000   1.0000   1.0001   1.0001   1.0798   1.0798
     1.0769   0.2903   0.1875   0.1875   0.0000   0.0000   0.0000

          k = 0.0500 0.0500 0.1500 (   903 PWs)   bands (ev):

   -30.3840 -19.8034 -12.2230 -11.8513 -11.8222 -11.3093 -11.1599 -10.7611
    -4.8761  -4.8636  -4.8481   4.5047   4.6819   4.6959   5.0065   5.1930
     5.3000   5.6607   5.8540   5.8867  10.6977  10.7010  10.9548

     occupation numbers 
     1.0000   1.0000   1.0000   1.0000   1.0000   1.0000   1.0000   1.0000
     1.0000   1.0000   1.0000   1.0000   1.0000   1.0000   1.0096   1.0561
     1.0831   0.4859   0.1074   0.0760   0.0000   0.0000   0.0000

          k = 0.0500 0.0500 0.2500 (   901 PWs)   bands (ev):

   -30.3826 -19.7980 -12.5550 -11.8558 -11.8195 -11.3198 -11.1539 -10.3185
    -4.8787  -4.8545  -4.8388   4.2832   4.6499   4.6649   4.8740   5.0450
     5.2193   5.2724   5.8380   5.8428  11.0848  11.0976  11.6739

     occupation numbers 
     1.0000   1.0000   1.0000   1.0000   1.0000   1.0000   1.0000   1.0000
     1.0000   1.0000   1.0000   1.0000   1.0000   1.0000   1.0014   1.0152
     1.0650   1.0796   0.1260   0.1202   0.0000   0.0000   0.0000

          k = 0.0500 0.0500 0.3500 (   894 PWs)   bands (ev):

   -30.3812 -19.7925 -12.7880 -11.8614 -11.8169 -11.3332 -11.1493  -9.9643
    -4.8771  -4.8451  -4.8329   4.2507   4.6114   4.6165   4.7270   4.7971
     5.0710   5.1401   5.8137   5.8201  11.5037  11.5359  12.3947

     occupation numbers 
     1.0000   1.0000   1.0000   1.0000   1.0000   1.0000   1.0000   1.0000
     1.0000   1.0000   1.0000   1.0000   1.0000   1.0000   1.0001   1.0004
     1.0201   1.0384   0.1586   0.1495   0.0000   0.0000   0.0000

          k = 0.0500 0.0500 0.4500 (   892 PWs)   bands (ev):

   -30.3802 -19.7891 -12.9058 -11.8646 -11.8130 -11.3408 -11.1489  -9.7733
    -4.8758  -4.8395  -4.8303   4.1024   4.4396   4.6027   4.6238   4.6613
     5.0492   5.1166   5.7944   5.8666  11.7816  11.8155  12.7399

     occupation numbers 
     1.0000   1.0000   1.0000   1.0000   1.0000   1.0000   1.0000   1.0000
     1.0000   1.0000   1.0000   1.0000   1.0000   1.0000   1.0000   1.0000
     1.0159   1.0313   0.1885   0.0943   0.0000   0.0000   0.0000

          k = 0.0500 0.1500 0.1500 (   911 PWs)   bands (ev):

   -30.3833 -19.8002 -12.2477 -12.2060 -11.8374 -11.2486 -10.8039 -10.7313
    -4.8908  -4.8631  -4.8341   4.3221   4.6639   4.6735   4.8133   5.0400
     5.2902   5.4905   5.6417   5.8515  10.8697  10.9565  11.2268

     occupation numbers 
     1.0000   1.0000   1.0000   1.0000   1.0000   1.0000   1.0000   1.0000
     1.0000   1.0000   1.0000   1.0000   1.0000   1.0000   1.0005   1.0143
     1.0823   0.9202   0.5376   0.1102   0.0000   0.0000   0.0000

          k = 0.0500 0.1500 0.2500 (   905 PWs)   bands (ev):

   -30.3818 -19.7947 -12.5583 -12.2299 -11.8348 -11.2498 -10.7717 -10.3207
    -4.9016  -4.8579  -4.8274   4.1313   4.6431   4.6498   4.7106   4.9383
     5.2060   5.3095   5.6152   5.7982  11.2014  11.3589  11.7764

     occupation numbers 
     1.0000   1.0000   1.0000   1.0000   1.0000   1.0000   1.0000   1.0000
     1.0000   1.0000   1.0000   1.0000   1.0000   1.0000   1.0001   1.0038
     1.0605   1.0833   0.6111   0.1822   0.0000   0.0000   0.0000

          k = 0.0500 0.1500 0.3500 (   902 PWs)   bands (ev):

   -30.3804 -19.7892 -12.7917 -12.2334 -11.8329 -11.2549 -10.7728  -9.9704
    -4.9024  -4.8577  -4.8254   4.0456   4.4412   4.5689   4.6332   4.7762
     5.0339   5.3000   5.5609   5.7886  11.6030  11.7680  12.4216

     occupation numbers 
     1.0000   1.0000   1.0000   1.0000   1.0000   1.0000   1.0000   1.0000
     1.0000   1.0000   1.0000   1.0000   1.0000   1.0000   1.0000   1.0002
     1.0133   1.0831   0.7580   0.1981   0.0000   0.0000   0.0000

          k = 0.0500 0.1500 0.4500 (   899 PWs)   bands (ev):

   -30.3794 -19.7859 -12.9099 -12.2347 -11.8324 -11.2575 -10.7727  -9.7777
    -4.8965  -4.8644  -4.8237   4.0134   4.1566   4.5687   4.5938   4.6541
     5.0268   5.3340   5.5731   5.7607  11.8901  12.0551  12.8078

     occupation numbers 
     1.0000   1.0000   1.0000   1.0000   1.0000   1.0000   1.0000   1.0000
     1.0000   1.0000   1.0000   1.0000   1.0000   1.0000   1.0000   1.0000
     1.0123   1.0810   0.7258   0.2490   0.0000   0.0000   0.0000

          k = 0.0500 0.2500 0.2500 (   897 PWs)   bands (ev):

   -30.3803 -19.7893 -12.5717 -12.5489 -11.8315 -11.2420 -10.3522 -10.2989
    -4.9244  -4.8628  -4.8225   3.9516   4.4923   4.6514   4.6584   4.8933
     5.1473   5.3392   5.6115   5.7933  11.4231  11.8308  12.0292

     occupation numbers 
     1.0000   1.0000   1.0000   1.0000   1.0000   1.0000   1.0000   1.0000
     1.0000   1.0000   1.0000   1.0000   1.0000   1.0000   1.0000   1.0019
     1.0406   1.0799   0.6213   0.1902   0.0000   0.0000   0.0000

          k = 0.0500 0.2500 0.3500 (   901 PWs)   bands (ev):

   -30.3790 -19.7839 -12.7959 -12.5655 -11.8302 -11.2434 -10.3322  -9.9755
    -4.9351  -4.8806  -4.8170   3.7754   4.2241   4.5586   4.6407   4.7796
     5.0185   5.2734   5.5994   5.7455  11.7473  12.2280  12.3996

     occupation numbers 
     1.0000   1.0000   1.0000   1.0000   1.0000   1.0000   1.0000   1.0000
     1.0000   1.0000   1.0000   1.0000   1.0000   1.0000   1.0000   1.0003
     1.0111   1.0798   0.6545   0.2799   0.0000   0.0000   0.0000

          k = 0.0500 0.2500 0.4500 (   902 PWs)   bands (ev):

   -30.3781 -19.7805 -12.9156 -12.5684 -11.8282 -11.2440 -10.3346  -9.7830
    -4.9296  -4.9038  -4.8127   3.7843   3.9584   4.4923   4.6145   4.6679
     4.9843   5.2944   5.5574   5.7440  12.0586  12.4167  12.5875

     occupation numbers 
     1.0000   1.0000   1.0000   1.0000   1.0000   1.0000   1.0000   1.0000
     1.0000   1.0000   1.0000   1.0000   1.0000   1.0000   1.0000   1.0000
     1.0072   1.0827   0.7668   0.2831   0.0000   0.0000   0.0000

          k = 0.0500 0.3500 0.3500 (   910 PWs)   bands (ev):

   -30.3776 -19.7785 -12.8049 -12.7979 -11.8281 -11.2401  -9.9962  -9.9710
    -4.9578  -4.9138  -4.8077   3.5851   3.9201   4.4466   4.5839   4.6509
     4.9625   5.1930   5.6677   5.6955  11.9187  12.3120  12.7848

     occupation numbers 
     1.0000   1.0000   1.0000   1.0000   1.0000   1.0000   1.0000   1.0000
     1.0000   1.0000   1.0000   1.0000   1.0000   1.0000   1.0000   1.0000
     1.0054   1.0561   0.4673   0.3954   0.0000   0.0000   0.0000

          k = 0.0500 0.3500 0.4500 (   909 PWs)   bands (ev):

   -30.3767 -19.7752 -12.9215 -12.8037 -11.8260 -11.2373  -9.9875  -9.7872
    -4.9614  -4.9439  -4.8015   3.5033   3.8176   4.3963   4.5605   4.6157
     5.0105   5.1273   5.6165   5.7249  12.0453  12.3415  13.0161

     occupation numbers 
     1.0000   1.0000   1.0000   1.0000   1.0000   1.0000   1.0000   1.0000
     1.0000   1.0000   1.0000   1.0000   1.0000   1.0000   1.0000   1.0000
     1.0101   1.0345   0.6073   0.3250   0.0000   0.0000   0.0000

          k = 0.0500 0.4500 0.4500 (   906 PWs)   bands (ev):

   -30.3758 -19.7718 -12.9247 -12.9241 -11.8223 -11.2329  -9.7913  -9.7871
    -4.9779  -4.9713  -4.7944   3.3478   3.7071   4.3909   4.5535   4.5604
     5.0691   5.1482   5.5650   5.8936  11.8883  12.4910  13.1424

     occupation numbers 
     1.0000   1.0000   1.0000   1.0000   1.0000   1.0000   1.0000   1.0000
     1.0000   1.0000   1.0000   1.0000   1.0000   1.0000   1.0000   1.0000
     1.0197   1.0409   0.7473   0.0704   0.0000   0.0000   0.0000

          k = 0.1500 0.1500 0.1500 (   910 PWs)   bands (ev):

   -30.3824 -19.7969 -12.2680 -12.2044 -12.2044 -10.8770 -10.7275 -10.7275
    -4.8904  -4.8904  -4.8163   4.2186   4.6778   4.6778   4.8650   4.8650
     5.3590   5.3841   5.5918   5.5918  11.0800  11.0800  11.4348

     occupation numbers 
     1.0000   1.0000   1.0000   1.0000   1.0000   1.0000   1.0000   1.0000
     1.0000   1.0000   1.0000   1.0000   1.0000   1.0000   1.0012   1.0012
     1.0736   1.0600   0.6753   0.6753   0.0000   0.0000   0.0000

          k = 0.1500 0.1500 0.2500 (   906 PWs)   bands (ev):

   -30.3810 -19.7914 -12.5607 -12.2500 -12.2019 -10.8398 -10.7234 -10.3231
    -4.9101  -4.8905  -4.8117   4.0284   4.5606   4.5760   4.7845   4.7987
     5.1909   5.3670   5.5897   5.6441  11.3509  11.4467  11.8339

     occupation numbers 
     1.0000   1.0000   1.0000   1.0000   1.0000   1.0000   1.0000   1.0000
     1.0000   1.0000   1.0000   1.0000   1.0000   1.0000   1.0003   1.0004
     1.0554   1.0699   0.6812   0.5310   0.0000   0.0000   0.0000

          k = 0.1500 0.1500 0.3500 (   895 PWs)   bands (ev):

   -30.3794 -19.7860 -12.7916 -12.2559 -12.1951 -10.8423 -10.7207  -9.9705
    -4.9171  -4.8905  -4.8195   3.9627   4.4628   4.4866   4.5457   4.7440
     5.2604   5.4470   5.5433   5.6802  11.7468  11.8351  12.3148

     occupation numbers 
     1.0000   1.0000   1.0000   1.0000   1.0000   1.0000   1.0000   1.0000
     1.0000   1.0000   1.0000   1.0000   1.0000   1.0000   1.0000   1.0001
     1.0770   0.9940   0.8025   0.4344   0.0000   0.0000   0.0000

          k = 0.1500 0.1500 0.4500 (   904 PWs)   bands (ev):

   -30.3787 -19.7827 -12.9140 -12.2612 -12.1954 -10.8478 -10.7215  -9.7790
    -4.9159  -4.8905  -4.8300   3.9414   4.1117   4.3518   4.4842   4.6525
     5.2599   5.3578   5.4950   5.6039  12.0523  12.0742  12.6345

     occupation numbers 
     1.0000   1.0000   1.0000   1.0000   1.0000   1.0000   1.0000   1.0000
     1.0000   1.0000   1.0000   1.0000   1.0000   1.0000   1.0000   1.0000
     1.0769   1.0741   0.9112   0.6422   0.0000   0.0000   0.0000

          k = 0.1500 0.2500 0.2500 (   906 PWs)   bands (ev):

   -30.3795 -19.7861 -12.5757 -12.5475 -12.2216 -10.7903 -10.3540 -10.3018
    -4.9337  -4.9062  -4.8138   3.8494   4.4240   4.5240   4.7037   4.8057
     5.0440   5.4070   5.5462   5.5738  11.5620  11.7573  12.0016

     occupation numbers 
     1.0000   1.0000   1.0000   1.0000   1.0000   1.0000   1.0000   1.0000
     1.0000   1.0000   1.0000   1.0000   1.0000   1.0000   1.0001   1.0004
     1.0150   1.0415   0.7953   0.7239   0.0000   0.0000   0.0000

          k = 0.1500 0.2500 0.3500 (   905 PWs)   bands (ev):

   -30.3781 -19.7808 -12.7954 -12.5639 -12.2212 -10.7877 -10.3306  -9.9759
    -4.9486  -4.9177  -4.8273   3.8064   4.2243   4.4656   4.5033   4.7002
     5.0476   5.3879   5.5362   5.5843  11.8697  12.1064  12.2476

     occupation numbers 
     1.0000   1.0000   1.0000   1.0000   1.0000   1.0000   1.0000   1.0000
     1.0000   1.0000   1.0000   1.0000   1.0000   1.0000   1.0000   1.0001
     1.0156   1.0573   0.8198   0.6959   0.0000   0.0000   0.0000

          k = 0.1500 0.2500 0.4500 (   910 PWs)   bands (ev):

   -30.3773 -19.7776 -12.9171 -12.5670 -12.2209 -10.7874 -10.3328  -9.7837
    -4.9495  -4.9300  -4.8391   3.7813   3.9464   4.3446   4.4624   4.6602
     5.1163   5.2573   5.5269   5.5601  12.1657  12.3012  12.4204

     occupation numbers 
     1.0000   1.0000   1.0000   1.0000   1.0000   1.0000   1.0000   1.0000
     1.0000   1.0000   1.0000   1.0000   1.0000   1.0000   1.0000   1.0000
     1.0313   1.0762   0.8418   0.7599   0.0000   0.0000   0.0000

          k = 0.1500 0.3500 0.3500 (   906 PWs)   bands (ev):

   -30.3766 -19.7756 -12.8027 -12.7927 -12.2171 -10.7819  -9.9939  -9.9692
    -4.9753  -4.9448  -4.8395   3.6440   3.9646   4.4373   4.4790   4.5622
     5.0245   5.3913   5.5457   5.7247  11.9616  12.2803  12.4462

     occupation numbers 
     1.0000   1.0000   1.0000   1.0000   1.0000   1.0000   1.0000   1.0000
     1.0000   1.0000   1.0000   1.0000   1.0000   1.0000   1.0000   1.0000
     1.0120   1.0548   0.7966   0.3255   0.0000   0.0000   0.0000

          k = 0.1500 0.3500 0.4500 (   913 PWs)   bands (ev):

   -30.3759 -19.7724 -12.9207 -12.8008 -12.2170 -10.7817  -9.9851  -9.7864
    -4.9832  -4.9692  -4.8477   3.5808   3.7841   4.3694   4.3796   4.5062
     5.1032   5.3071   5.4409   5.7463  11.9856  12.4086  12.6663

     occupation numbers 
     1.0000   1.0000   1.0000   1.0000   1.0000   1.0000   1.0000   1.0000
     1.0000   1.0000   1.0000   1.0000   1.0000   1.0000   1.0000   1.0000
     1.0277   1.0833   1.0026   0.2781   0.0000   0.0000   0.0000

          k = 0.1500 0.4500 0.4500 (   911 PWs)   bands (ev):

   -30.3751 -19.7692 -12.9238 -12.9212 -12.2149 -10.7767  -9.7883  -9.7849
    -5.0008  -4.9955  -4.8530   3.4941   3.7065   4.3498   4.3899   4.4213
     5.2050   5.3353   5.3369   5.8723  11.8139  12.6203  12.7463

     occupation numbers 
     1.0000   1.0000   1.0000   1.0000   1.0000   1.0000   1.0000   1.0000
     1.0000   1.0000   1.0000   1.0000   1.0000   1.0000   1.0000   1.0000
     1.0602   1.0808   1.0804   0.0888   0.0000   0.0000   0.0000

          k = 0.2500 0.2500 0.2500 (   901 PWs)   bands (ev):

   -30.3780 -19.7810 -12.5915 -12.5411 -12.5411 -10.4016 -10.2975 -10.2975
    -4.9477  -4.9477  -4.8273   3.8078   4.4031   4.4031   4.7549   4.7791
     4.7791   5.5254   5.5254   5.6260  11.8144  11.8144  12.0173

     occupation numbers 
     1.0000   1.0000   1.0000   1.0000   1.0000   1.0000   1.0000   1.0000
     1.0000   1.0000   1.0000   1.0000   1.0000   1.0000   1.0002   1.0003
     1.0003   0.8452   0.8452   0.5811   0.0000   0.0000   0.0000

          k = 0.2500 0.2500 0.3500 (   910 PWs)   bands (ev):

   -30.3767 -19.7759 -12.7965 -12.5776 -12.5390 -10.3757 -10.2960  -9.9760
    -4.9739  -4.9622  -4.8558   3.7364   4.2399   4.2464   4.4309   4.7248
     4.8185   5.4173   5.5346   5.6338  12.0383  12.0523  12.0824

     occupation numbers 
     1.0000   1.0000   1.0000   1.0000   1.0000   1.0000   1.0000   1.0000
     1.0000   1.0000   1.0000   1.0000   1.0000   1.0000   1.0000   1.0001
     1.0005   1.0312   0.8236   0.5594   0.0000   0.0000   0.0000

          k = 0.2500 0.2500 0.4500 (   917 PWs)   bands (ev):

   -30.3759 -19.7728 -12.9175 -12.5821 -12.5372 -10.3773 -10.2945  -9.7852
    -4.9825  -4.9712  -4.8803   3.7764   3.9183   4.1786   4.3871   4.6906
     4.8396   5.3648   5.3978   5.6364  12.1545  12.1624  12.3674

     occupation numbers 
     1.0000   1.0000   1.0000   1.0000   1.0000   1.0000   1.0000   1.0000
     1.0000   1.0000   1.0000   1.0000   1.0000   1.0000   1.0000   1.0000
     1.0008   1.0710   1.0497   0.5522   0.0000   0.0000   0.0000

          k = 0.2500 0.3500 0.3500 (   914 PWs)   bands (ev):

   -30.3754 -19.7709 -12.8025 -12.7898 -12.5536 -10.3373  -9.9927  -9.9644
    -5.0039  -4.9914  -4.8931   3.6994   4.0629   4.2598   4.3154   4.5117
     4.7689   5.4483   5.5838   5.7005  11.9451  12.1213  12.1613

     occupation numbers 
     1.0000   1.0000   1.0000   1.0000   1.0000   1.0000   1.0000   1.0000
     1.0000   1.0000   1.0000   1.0000   1.0000   1.0000   1.0000   1.0000
     1.0002   0.9921   0.6971   0.3831   0.0000   0.0000   0.0000

          k = 0.2500 0.3500 0.4500 (   919 PWs)   bands (ev):

   -30.3746 -19.7679 -12.9181 -12.7981 -12.5518 -10.3351  -9.9787  -9.7841
    -5.0181  -5.0103  -4.9204   3.6809   3.8056   4.1808   4.2839   4.4815
     4.7726   5.4556   5.5456   5.7799  11.8828  12.1672  12.2646

     occupation numbers 
     1.0000   1.0000   1.0000   1.0000   1.0000   1.0000   1.0000   1.0000
     1.0000   1.0000   1.0000   1.0000   1.0000   1.0000   1.0000   1.0000
     1.0002   0.9813   0.7968   0.2131   0.0000   0.0000   0.0000

          k = 0.2500 0.4500 0.4500 (   914 PWs)   bands (ev):

   -30.3737 -19.7649 -12.9178 -12.9164 -12.5497 -10.3290  -9.7828  -9.7824
    -5.0387  -5.0351  -4.9448   3.6364   3.7345   4.1939   4.2210   4.4199
     4.8160   5.5804   5.5971   5.9264  11.6965  12.2116  12.2133

     occupation numbers 
     1.0000   1.0000   1.0000   1.0000   1.0000   1.0000   1.0000   1.0000
     1.0000   1.0000   1.0000   1.0000   1.0000   1.0000   1.0000   1.0000
     1.0005   0.7062   0.6609   0.0482   0.0000   0.0000   0.0000

          k = 0.3500 0.3500 0.3500 (   925 PWs)   bands (ev):

   -30.3742 -19.7663 -12.8110 -12.7858 -12.7858 -10.0115  -9.9654  -9.9654
    -5.0326  -5.0326  -4.9514   3.6790   4.0064   4.1299   4.1299   4.4823
     4.4823   5.6119   5.6119   5.6867  11.8376  11.9671  11.9671

     occupation numbers 
     1.0000   1.0000   1.0000   1.0000   1.0000   1.0000   1.0000   1.0000
     1.0000   1.0000   1.0000   1.0000   1.0000   1.0000   1.0000   1.0000
     1.0000   0.6200   0.6200   0.4177   0.0000   0.0000   0.0000

          k = 0.3500 0.3500 0.4500 (   917 PWs)   bands (ev):

   -30.3732 -19.7634 -12.9153 -12.8005 -12.7805  -9.9948  -9.9594  -9.7798
    -5.0530  -5.0500  -4.9906   3.6765   3.9295   4.1101   4.1941   4.4770
     4.5483   5.6114   5.7282   5.7942  11.7510  11.8922  11.9098

     occupation numbers 
     1.0000   1.0000   1.0000   1.0000   1.0000   1.0000   1.0000   1.0000
     1.0000   1.0000   1.0000   1.0000   1.0000   1.0000   1.0000   1.0000
     1.0000   0.6215   0.3176   0.1888   0.0000   0.0000   0.0000

          k = 0.3500 0.4500 0.4500 (   917 PWs)   bands (ev):

   -30.3724 -19.7605 -12.9134 -12.9112 -12.7863  -9.9757  -9.7807  -9.7785
    -5.0756  -5.0740  -5.0334   3.5773   3.9031   4.1280   4.1329   4.4051
     4.5385   5.7520   5.7748   5.9072  11.5791  11.7697  11.7766

     occupation numbers 
     1.0000   1.0000   1.0000   1.0000   1.0000   1.0000   1.0000   1.0000
     1.0000   1.0000   1.0000   1.0000   1.0000   1.0000   1.0000   1.0000
     1.0000   0.2663   0.2223   0.0604   0.0000   0.0000   0.0000

          k = 0.4500 0.4500 0.4500 (   925 PWs)   bands (ev):

   -30.3717 -19.7579 -12.9123 -12.9085 -12.9085  -9.7833  -9.7781  -9.7781
    -5.0982  -5.0982  -5.0866   3.4937   3.9857   4.0811   4.0811   4.3492
     4.3492   5.8284   5.8284   5.8800  11.4972  11.5219  11.5219

     occupation numbers 
     1.0000   1.0000   1.0000   1.0000   1.0000   1.0000   1.0000   1.0000
     1.0000   1.0000   1.0000   1.0000   1.0000   1.0000   1.0000   1.0000
     1.0000   0.1383   0.1383   0.0818   0.0000   0.0000   0.0000

     the Fermi energy is     5.6934 ev

!    total energy              =    -626.48409601 Ry
     estimated scf accuracy    <       0.00000002 Ry
     smearing contrib. (-TS)   =      -0.00163736 Ry
     internal energy E=F+TS    =    -626.48245865 Ry

     The total energy is F=E-TS. E is the sum of the following terms:
     one-electron contribution =     -61.03318045 Ry
     hartree contribution      =      50.26975870 Ry
     xc contribution           =     -53.24687924 Ry
     ewald contribution        =    -166.45952522 Ry
     one-center paw contrib.   =    -396.01263244 Ry
      -> PAW hartree energy AE =      28.28796230 Ry
      -> PAW hartree energy PS =     -28.17007720 Ry
      -> PAW xc energy AE      =    -387.73039318 Ry
      -> PAW xc energy PS      =      19.01366112 Ry
      -> total E_H with PAW    =      50.38764380 Ry
      -> total E_XC with PAW   =    -421.96361130 Ry

     convergence has been achieved in   8 iterations

     Forces acting on atoms (cartesian axes, Ry/au):

     atom    1 type  1   force =     0.00000000    0.00000000    0.00000000
     atom    2 type  2   force =     0.00000000    0.00000000    0.00000000
     atom    3 type  3   force =     0.00000000    0.00000000    0.00000000
     atom    4 type  3   force =     0.00000000    0.00000000    0.00000000
     atom    5 type  3   force =     0.00000000    0.00000000    0.00000000
     The non-local contrib.  to forces
     atom    1 type  1   force =     0.00000000    0.00000000    0.00000000
     atom    2 type  2   force =     0.00000000    0.00000000    0.00000000
     atom    3 type  3   force =     0.00000000    0.00000000    0.00000000
     atom    4 type  3   force =     0.00000000    0.00000000    0.00000000
     atom    5 type  3   force =     0.00000000    0.00000000    0.00000000
     The ionic contribution  to forces
     atom    1 type  1   force =    -0.00000000   -0.00000000   -0.00000000
     atom    2 type  2   force =     0.00000000    0.00000000    0.00000000
     atom    3 type  3   force =     0.00000000    0.00000000   -0.00000000
     atom    4 type  3   force =     0.00000000   -0.00000000    0.00000000
     atom    5 type  3   force =    -0.00000000    0.00000000    0.00000000
     The local contribution  to forces
     atom    1 type  1   force =    -0.00000000    0.00000000   -0.00000000
     atom    2 type  2   force =     0.00000000    0.00000000    0.00000000
     atom    3 type  3   force =     0.00000000    0.00000000    0.00000000
     atom    4 type  3   force =     0.00000000    0.00000000    0.00000000
     atom    5 type  3   force =    -0.00000000    0.00000000    0.00000000
     The core correction contribution to forces
     atom    1 type  1   force =    -0.00000000    0.00000000    0.00000000
     atom    2 type  2   force =    -0.00000000   -0.00000000    0.00000000
     atom    3 type  3   force =     0.00000000    0.00000000   -0.00000000
     atom    4 type  3   force =     0.00000000    0.00000000    0.00000000
     atom    5 type  3   force =    -0.00000000    0.00000000    0.00000000
     The Hubbard contrib.    to forces
     atom    1 type  1   force =     0.00000000    0.00000000    0.00000000
     atom    2 type  2   force =     0.00000000    0.00000000    0.00000000
     atom    3 type  3   force =     0.00000000    0.00000000    0.00000000
     atom    4 type  3   force =     0.00000000    0.00000000    0.00000000
     atom    5 type  3   force =     0.00000000    0.00000000    0.00000000
     The SCF correction term to forces
     atom    1 type  1   force =    -0.00000000    0.00000000   -0.00000000
     atom    2 type  2   force =     0.00000000    0.00000000    0.00000000
     atom    3 type  3   force =    -0.00000000   -0.00000000   -0.00000000
     atom    4 type  3   force =    -0.00000000    0.00000000    0.00000000
     atom    5 type  3   force =     0.00000000    0.00000000    0.00000000

     Total force =     0.000000     Total SCF correction =     0.000000


     Computing stress (Cartesian axis) and pressure

          total   stress  (Ry/bohr**3)                   (kbar)     P=    -1222.39
  -0.00830964   0.00000000   0.00000000        -1222.39        0.00        0.00
   0.00000000  -0.00830964   0.00000000            0.00    -1222.39        0.00
   0.00000000   0.00000000  -0.00830964            0.00        0.00    -1222.39

     kinetic stress (kbar)  14604.51      0.00      0.00
                                0.00  14604.51      0.00
                                0.00      0.00  14604.51

     local   stress (kbar)  -6265.91      0.00     -0.00
                                0.00  -6265.91      0.00
                               -0.00      0.00  -6265.91

     nonloc. stress (kbar)   3332.46      0.00      0.00
                                0.00   3332.46      0.00
                                0.00      0.00   3332.46

     hartree stress (kbar)   4105.06     -0.00      0.00
                               -0.00   4105.06     -0.00
                                0.00     -0.00   4105.06

     exc-cor stress (kbar)    473.39      0.00     -0.00
                                0.00    473.39     -0.00
                               -0.00     -0.00    473.39

     corecor stress (kbar)  -3878.70      0.00     -0.00
                                0.00  -3878.70     -0.00
                               -0.00     -0.00  -3878.70

     ewald   stress (kbar) -13593.20      0.00     -0.00
                                0.00 -13593.20     -0.00
                               -0.00     -0.00 -13593.20

     hubbard stress (kbar)      0.00      0.00      0.00
                                0.00      0.00      0.00
                                0.00      0.00      0.00

     DFT-D   stress (kbar)      0.00      0.00      0.00
                                0.00      0.00      0.00
                                0.00      0.00      0.00

     XDM     stress (kbar)      0.00      0.00      0.00
                                0.00      0.00      0.00
                                0.00      0.00      0.00

     dft-nl  stress (kbar)      0.00      0.00      0.00
                                0.00      0.00      0.00
                                0.00      0.00      0.00

     TS-vdW  stress (kbar)      0.00      0.00      0.00
                                0.00      0.00      0.00
                                0.00      0.00      0.00

     MDB     stress (kbar)      0.00      0.00      0.00
                                0.00      0.00      0.00
                                0.00      0.00      0.00

     3D-RISM stress (kbar)      0.00      0.00      0.00
                                0.00      0.00      0.00
                                0.00      0.00      0.00


     Writing all to output data dir ./out/BCO.save/ :
     XML data file, charge density, pseudopotentials, collected wavefunctions

     init_run     :      0.67s CPU      0.69s WALL (       1 calls)
     electrons    :      6.07s CPU      6.71s WALL (       1 calls)
     forces       :      0.06s CPU      0.06s WALL (       1 calls)
     stress       :      0.18s CPU      0.19s WALL (       1 calls)

     Called by init_run:
     wfcinit      :      0.07s CPU      0.08s WALL (       1 calls)
     wfcinit:atom :      0.00s CPU      0.00s WALL (      18 calls)
     wfcinit:wfcr :      0.07s CPU      0.07s WALL (      18 calls)
     potinit      :      0.19s CPU      0.20s WALL (       1 calls)
     hinit0       :      0.26s CPU      0.27s WALL (       1 calls)

     Called by electrons:
     c_bands      :      4.64s CPU      5.02s WALL (       9 calls)
     sum_band     :      0.56s CPU      0.64s WALL (       9 calls)
     v_of_rho     :      0.04s CPU      0.05s WALL (       9 calls)
     v_h          :      0.00s CPU      0.00s WALL (       9 calls)
     v_xc         :      0.04s CPU      0.05s WALL (      11 calls)
     newd         :      0.23s CPU      0.26s WALL (       9 calls)
     PAW_pot      :      0.66s CPU      0.80s WALL (       9 calls)
     mix_rho      :      0.00s CPU      0.01s WALL (       9 calls)

     Called by c_bands:
     init_us_2    :      0.02s CPU      0.02s WALL (     378 calls)
     init_us_2:cp :      0.02s CPU      0.02s WALL (     378 calls)
     cegterg      :      3.30s CPU      3.64s WALL (     162 calls)

     Called by sum_band:
     sum_band:wei :      0.01s CPU      0.01s WALL (       9 calls)
     sum_band:loo :      0.30s CPU      0.35s WALL (       9 calls)
     sum_band:buf :      0.00s CPU      0.00s WALL (     162 calls)
     sum_band:ini :      0.01s CPU      0.01s WALL (     162 calls)
     sum_band:cal :      0.10s CPU      0.12s WALL (     162 calls)
     sum_band:bec :      0.01s CPU      0.01s WALL (     162 calls)
     addusdens    :      0.15s CPU      0.16s WALL (       9 calls)
                                        0.00s GPU  (       9 calls)
     addusd:skk   :      0.00s CPU      0.00s WALL (      27 calls)
                                        0.00s GPU  (      27 calls)

     Called by *egterg:
     cdiaghg      :      0.58s CPU      0.65s WALL (     799 calls)
     cegterg:over :      0.36s CPU      0.39s WALL (     655 calls)
     cegterg:upda :      0.06s CPU      0.06s WALL (     655 calls)
     cegterg:last :      0.13s CPU      0.14s WALL (     342 calls)
     h_psi        :      1.60s CPU      1.78s WALL (     835 calls)
     s_psi        :      0.13s CPU      0.15s WALL (     835 calls)
     g_psi        :      0.00s CPU      0.00s WALL (     655 calls)

     Called by h_psi:
     h_psi:calbec :      0.28s CPU      0.32s WALL (     835 calls)
     vloc_psi     :      1.18s CPU      1.30s WALL (     835 calls)
     add_vuspsi   :      0.13s CPU      0.16s WALL (     835 calls)

     General routines
     calbec       :      0.42s CPU      0.48s WALL (    1087 calls)
     fft          :      0.21s CPU      0.22s WALL (     141 calls)
     ffts         :      0.03s CPU      0.03s WALL (      18 calls)
     fftw         :      1.30s CPU      1.43s WALL (   23926 calls)
     interpolate  :      0.04s CPU      0.04s WALL (       9 calls)

     Parallel routines

     PAW routines
     PAW_pot      :      0.66s CPU      0.80s WALL (       9 calls)
     PAW_symme    :      0.04s CPU      0.04s WALL (      18 calls)

     PWSCF        :      7.64s CPU      8.35s WALL


   This run was terminated on:  18:40:35   7Apr2025            

=------------------------------------------------------------------------------=
   JOB DONE.
=------------------------------------------------------------------------------=
